/*---------------------------------------------------------------------------*\ 
| =========                 |                                                 |
| \\      /  F ield         | OpenFOAM: The Open Source CFD Toolbox           |
|  \\    /   O peration     | Version:  1.4                                   |
|   \\  /    A nd           | Web:      http://www.openfoam.org               |
|    \\/     M anipulation  |                                                 |
\*---------------------------------------------------------------------------*/ 

FoamFile
{
    version         2.0;
    format          ascii;

    root            "";
    case            "";
    instance        "";
    local           "";

    class           volScalarField;
    object          S;
}

// * * * * * * * * * * * * * * * * * * * * * * * * * * * * * * * * * * * * * //


dimensions      [0 1 0 0 0 0 0];

internalField   nonuniform List<scalar>
120
(  
0.029875
0.029625
0.029375
0.029125
0.028875
0.028625
0.028375
0.028125
0.027875
0.027625
0.027375
0.027125
0.026875
0.026625
0.026375
0.026125
0.025875
0.025625
0.025375
0.025125
0.024875
0.024625
0.024375
0.024125
0.023875
0.023625
0.023375
0.023125
0.022875
0.022625
0.022375
0.022125
0.021875
0.021625
0.021375
0.021125
0.020875
0.020625
0.020375
0.020125
0.019875
0.019625
0.019375
0.019125
0.018875
0.018625
0.018375
0.018125
0.017875
0.017625
0.017375
0.017125
0.016875
0.016625
0.016375
0.016125
0.015875
0.015625
0.015375
0.015125
0.014875
0.014625
0.014375
0.014125
0.013875
0.013625
0.013375
0.013125
0.012875
0.012625
0.012375
0.012125
0.011875
0.011625
0.011375
0.011125
0.010875
0.010625
0.010375
0.010125
0.03340082
0.07962376
0.1241248
0.1658033
0.2036277
0.2366614
0.2640859
0.2852202
0.2995385
0.3066823
0.3064698
0.2989
0.284153
0.2625854
0.2347216
0.2012408
0.1629605
0.1208162
0.07583828
0.02912712
0.004875
0.004625
0.004375
0.004125
0.003875
0.003625
0.003375
0.003125
0.002875
0.002625
0.002375
0.002125
0.001875
0.001625
0.001375
0.001125
0.000875
0.000625
0.000375
0.000125
) 
;

boundaryField
{
    front
    {
        type       fixedValue;
        value      uniform 0.03;
    }

    back
    {
        type       fixedValue;
        value      uniform 0.0;
    }

    right
    {
        type       empty;
    }

    left
    {
        type       empty;
    }

    TopAndBot
    {
        type       empty;
    }

}


// ************************************************************************* //
