/*---------------------------------------------------------------------------*\ 
| =========                 |                                                 |
| \\      /  F ield         | OpenFOAM: The Open Source CFD Toolbox           |
|  \\    /   O peration     | Version:  1.4                                   |
|   \\  /    A nd           | Web:      http://www.openfoam.org               |
|    \\/     M anipulation  |                                                 |
\*---------------------------------------------------------------------------*/ 

FoamFile
{
    version         2.0;
    format          ascii;

    root            "";
    case            "";
    instance        "";
    local           "";

    class           volScalarField;
    object          S;
}

// * * * * * * * * * * * * * * * * * * * * * * * * * * * * * * * * * * * * * //


dimensions      [0 1 0 0 0 0 0];

internalField   nonuniform List<scalar>
1400
(  
1.1196
1.1188
1.118
1.1172
1.1164
1.1156
1.1148
1.114
1.1132
1.1124
1.1116
1.1108
1.11
1.1092
1.1084
1.1076
1.1068
1.106
1.1052
1.1044
1.1036
1.1028
1.102
1.1012
1.1004
1.0996
1.0988
1.098
1.0972
1.0964
1.0956
1.0948
1.094
1.0932
1.0924
1.0916
1.0908
1.09
1.0892
1.0884
1.0876
1.0868
1.086
1.0852
1.0844
1.0836
1.0828
1.082
1.0812
1.0804
1.0796
1.0788
1.078
1.0772
1.0764
1.0756
1.0748
1.074
1.0732
1.0724
1.0716
1.0708
1.07
1.0692
1.0684
1.0676
1.0668
1.066
1.0652
1.0644
1.0636
1.0628
1.062
1.0612
1.0604
1.0596
1.0588
1.058
1.0572
1.0564
1.0556
1.0548
1.054
1.0532
1.0524
1.0516
1.0508
1.05
1.0492
1.0484
1.0476
1.0468
1.046
1.0452
1.0444
1.0436
1.0428
1.042
1.0412
1.0404
1.0396
1.0388
1.038
1.0372
1.0364
1.0356
1.0348
1.034
1.0332
1.0324
1.0316
1.0308
1.03
1.0292
1.0284
1.0276
1.0268
1.026
1.0252
1.0244
1.0236
1.0228
1.022
1.0212
1.0204
1.0196
1.0188
1.018
1.0172
1.0164
1.0156
1.0148
1.014
1.0132
1.0124
1.0116
1.0108
1.01
1.0092
1.0084
1.0076
1.0068
1.006
1.0052
1.0044
1.0036
1.0028
1.002
1.0012
1.0004
0.9996
0.9988
0.998
0.9972
0.9964
0.9956
0.9948
0.994
0.9932
0.9924
0.9916
0.9908
0.99
0.9892
0.9884
0.9876
0.9868
0.986
0.9852
0.9844
0.9836
0.9828
0.982
0.9812
0.9804
0.9796
0.9788
0.978
0.9772
0.9764
0.9756
0.9748
0.974
0.9732
0.9724
0.9716
0.9708
0.97
0.9692
0.9684
0.9676
0.9668
0.966
0.9652
0.9644
0.9636
0.9628
0.962
0.9612
0.9604
0.9596
0.9588
0.958
0.9572
0.9564
0.9556
0.9548
0.954
0.9532
0.9524
0.9516
0.9508
0.95
0.9492
0.9484
0.9476
0.9468
0.946
0.9452
0.9444
0.9436
0.9428
0.942
0.9412
0.9404
0.9396
0.9388
0.938
0.9372
0.9364
0.9356
0.9348
0.934
0.9332
0.9324
0.9316
0.9308
0.93
0.9292
0.9284
0.9276
0.9268
0.926
0.9252
0.9244
0.9236
0.9228
0.922
0.9212
0.9204
0.9196
0.9188
0.918
0.9172
0.9164
0.9156
0.9148
0.914
0.9132
0.9124
0.9116
0.9108
0.91
0.9092
0.9084
0.9076
0.9068
0.906
0.9052
0.9044
0.9036
0.9028
0.902
0.9012
0.9004
0.8996
0.8988
0.898
0.8972
0.8964
0.8956
0.8948
0.894
0.8932
0.8924
0.8916
0.8908
0.89
0.8892
0.8884
0.8876
0.8868
0.886
0.8852
0.8844
0.8836
0.8828
0.882
0.8812
0.8804
0.8796
0.8788
0.878
0.8772
0.8764
0.8756
0.8748
0.874
0.8732
0.8724
0.8716
0.8708
0.87
0.8692
0.8684
0.8676
0.8668
0.866
0.8652
0.8644
0.8636
0.8628
0.862
0.8612
0.8604
0.8596
0.8588
0.858
0.8572
0.8564
0.8556
0.8548
0.854
0.8532
0.8524
0.8516
0.8508
0.85
0.8492
0.8484
0.8476
0.8468
0.846
0.8452
0.8444
0.8436
0.8428
0.842
0.8412
0.8404
0.8396
0.8388
0.838
0.8372
0.8364
0.8356
0.8348
0.834
0.8332
0.8324
0.8316
0.8308
0.83
0.8292
0.8284
0.8276
0.8268
0.826
0.8252
0.8244
0.8236
0.8228
0.822
0.8212
0.8204
0.8196
0.8188
0.818
0.8172
0.8164
0.8156
0.8148
0.814
0.8132
0.8124
0.8116
0.8108
0.81
0.8092
0.8084
0.8076
0.8068
0.806
0.8052
0.8044
0.8036
0.8028
0.802
0.8012
0.8004
0.7996
0.7988
0.798
0.7972
0.7964
0.7956
0.7948
0.794
0.7932
0.7924
0.7916
0.7908
0.79
0.7892
0.7884
0.7876
0.7868
0.786
0.7852
0.7844
0.7836
0.7828
0.782
0.7812
0.7804
0.7796
0.7788
0.778
0.7772
0.7764
0.7756
0.7748
0.774
0.7732
0.7724
0.7716
0.7708
0.77
0.7692
0.7684
0.7676
0.7668
0.766
0.7652
0.7644
0.7636
0.7628
0.762
0.7612
0.7604
0.7596
0.7588
0.758
0.7572
0.7564
0.7556
0.7548
0.754
0.7532
0.7524
0.7516
0.7508
0.75
0.7492
0.7484
0.7476
0.7468
0.746
0.7452
0.7444
0.7436
0.7428
0.742
0.7412
0.7404
0.7396
0.7388
0.738
0.7372
0.7364
0.7356
0.7348
0.734
0.7332
0.7324
0.7316
0.7308
0.73
0.7292
0.7284
0.7276
0.7268
0.726
0.7252
0.7244
0.7236
0.7228
0.722
0.7212
0.7204
0.7196
0.7188
0.718
0.7172
0.7164
0.7156
0.7148
0.714
0.7132
0.7124
0.7116
0.7108
0.71
0.7092
0.7084
0.7076
0.7068
0.706
0.7052
0.7044
0.7036
0.7028
0.702
0.7012
0.7004
0.6996
0.6988
0.698
0.6972
0.6964
0.6956
0.6948
0.694
0.6932
0.6924
0.6916
0.6908
0.69
0.6892
0.6884
0.6876
0.6868
0.686
0.6852
0.6844
0.6836
0.6828
0.682
0.6812
0.6804
0.6796
0.6788
0.678
0.6772
0.6764
0.6756
0.6748
0.674
0.6732
0.6724
0.6716
0.6708
0.67
0.6692
0.6684
0.6676
0.6668
0.666
0.6652
0.6644
0.6636
0.6628
0.662
0.6612
0.6604
0.6596
0.6588
0.658
0.6572
0.6564
0.6556
0.6548
0.654
0.6532
0.6524
0.6516
0.6508
0.65
0.6492
0.6484
0.6476
0.6468
0.646
0.6452
0.6444
0.6436
0.6428
0.642
0.6412
0.6404
0.6396
0.6388
0.638
0.6372
0.6364
0.6356
0.6348
0.634
0.6332
0.6324
0.6316
0.6308
0.63
0.6292
0.6284
0.6276
0.6268
0.626
0.6252
0.6244
0.6236
0.6228
0.622
0.6212
0.6204
0.6196
0.6188
0.618
0.6172
0.6164
0.6156
0.6148
0.614
0.6132
0.6124
0.6116
0.6108
0.61
0.6092
0.6084
0.6076
0.6068
0.606
0.6052
0.6044
0.6036
0.6028
0.602
0.6012
0.6004
0.5996
0.5988
0.598
0.5972
0.5964
0.5956
0.5948
0.594
0.5932
0.5924
0.5916
0.5908
0.59
0.5892
0.5884
0.5876
0.5868
0.586
0.5852
0.5844
0.5836
0.5828
0.582
0.5812
0.5804
0.5796
0.5788
0.578
0.5772
0.5764
0.5756
0.5748
0.574
0.5732
0.5724
0.5716
0.5708
0.57
0.5692
0.5684
0.5676
0.5668
0.566
0.5652
0.5644
0.5636
0.5628
0.562
0.5612
0.5604
0.5596
0.5588
0.558
0.5572
0.5564
0.5556
0.5548
0.554
0.5532
0.5524
0.5516
0.5508
0.55
0.5492
0.5484
0.5476
0.5468
0.546
0.5452
0.5444
0.5436
0.5428
0.542
0.5412
0.5404
0.5396
0.5388
0.538
0.5372
0.5364
0.5356
0.5348
0.534
0.5332
0.5324
0.5316
0.5308
0.53
0.5292
0.5284
0.5276
0.5268
0.526
0.5252
0.5244
0.5236
0.5228
0.522
0.5212
0.5204
0.5196
0.5188
0.518
0.5172
0.5164
0.5156
0.5148
0.514
0.5132
0.5124
0.5116
0.5108
0.51
0.5092
0.5084
0.5076
0.5068
0.506
0.5052
0.5044
0.5036
0.5028
0.502
0.5012
0.5004
0.4996
0.4988
0.498
0.4972
0.4964
0.4956
0.4948
0.494
0.4932
0.4924
0.4916
0.4908
0.49
0.4892
0.4884
0.4876
0.4868
0.486
0.4852
0.4844
0.4836
0.4828
0.482
0.4812
0.4804
0.4796
0.4788
0.478
0.4772
0.4764
0.4756
0.4748
0.474
0.4732
0.4724
0.4716
0.4708
0.47
0.4692
0.4684
0.4676
0.4668
0.466
0.4652
0.4644
0.4636
0.4628
0.462
0.4612
0.4604
0.4596
0.4588
0.458
0.4572
0.4564
0.4556
0.4548
0.454
0.4532
0.4524
0.4516
0.4508
0.45
0.4492
0.4484
0.4476
0.4468
0.446
0.4452
0.4444
0.4436
0.4428
0.442
0.4412
0.4404
0.4396
0.4388
0.438
0.4372
0.4364
0.4356
0.4348
0.434
0.4332
0.4324
0.4316
0.4308
0.43
0.4292
0.4284
0.4276
0.4268
0.426
0.4252
0.4244
0.4236
0.4228
0.422
0.4212
0.4204
0.4196
0.4188
0.418
0.4172
0.4164
0.4156
0.4148
0.414
0.4132
0.4124
0.4116
0.4108
0.41
0.4092
0.4084
0.4076
0.4068
0.406
0.4052
0.4044
0.4036
0.4028
0.402
0.4012
0.4004
0.3996
0.3988
0.398
0.3972
0.3964
0.3956
0.3948
0.394
0.3932
0.3924
0.3916
0.3908
0.39
0.3892
0.3884
0.3876
0.3868
0.386
0.3852
0.3844
0.3836
0.3828
0.382
0.3812
0.3804
0.3796
0.3788
0.378
0.3772
0.3764
0.3756
0.3748
0.374
0.3732
0.3724
0.3716
0.3708
0.37
0.3692
0.3684
0.3676
0.3668
0.366
0.3652
0.3644
0.3636
0.3628
0.362
0.3612
0.3604
0.3752974
0.4058304
0.4361779
0.4662172
0.4958267
0.5248865
0.5532789
0.5808888
0.6076042
0.6333165
0.6579214
0.6813185
0.7034126
0.7241133
0.7433359
0.7610015
0.7770372
0.7913767
0.8039602
0.8147351
0.8236557
0.8306836
0.835788
0.8389456
0.8401409
0.8393659
0.8366205
0.8319125
0.8252572
0.8166777
0.8062047
0.7938763
0.779738
0.7638424
0.7462489
0.7270238
0.7062397
0.6839755
0.6603156
0.6353504
0.6091749
0.5818894
0.5535981
0.5244096
0.4944356
0.4637913
0.4325942
0.4009643
0.3690231
0.3368933
0.3196
0.3188
0.318
0.3172
0.3164
0.3156
0.3148
0.314
0.3132
0.3124
0.3116
0.3108
0.31
0.3092
0.3084
0.3076
0.3068
0.306
0.3052
0.3044
0.3036
0.3028
0.302
0.3012
0.3004
0.2996
0.2988
0.298
0.2972
0.2964
0.2956
0.2948
0.294
0.2932
0.2924
0.2916
0.2908
0.29
0.2892
0.2884
0.2876
0.2868
0.286
0.2852
0.2844
0.2836
0.2828
0.282
0.2812
0.2804
0.2796
0.2788
0.278
0.2772
0.2764
0.2756
0.2748
0.274
0.2732
0.2724
0.2716
0.2708
0.27
0.2692
0.2684
0.2676
0.2668
0.266
0.2652
0.2644
0.2636
0.2628
0.262
0.2612
0.2604
0.2596
0.2588
0.258
0.2572
0.2564
0.2556
0.2548
0.254
0.2532
0.2524
0.2516
0.2508
0.25
0.2492
0.2484
0.2476
0.2468
0.246
0.2452
0.2444
0.2436
0.2428
0.242
0.2412
0.2404
0.2396
0.2388
0.238
0.2372
0.2364
0.2356
0.2348
0.234
0.2332
0.2324
0.2316
0.2308
0.23
0.2292
0.2284
0.2276
0.2268
0.226
0.2252
0.2244
0.2236
0.2228
0.222
0.2212
0.2204
0.2196
0.2188
0.218
0.2172
0.2164
0.2156
0.2148
0.214
0.2132
0.2124
0.2116
0.2108
0.21
0.2092
0.2084
0.2076
0.2068
0.206
0.2052
0.2044
0.2036
0.2028
0.202
0.2012
0.2004
0.1996
0.1988
0.198
0.1972
0.1964
0.1956
0.1948
0.194
0.1932
0.1924
0.1916
0.1908
0.19
0.1892
0.1884
0.1876
0.1868
0.186
0.1852
0.1844
0.1836
0.1828
0.182
0.1812
0.1804
0.1796
0.1788
0.178
0.1772
0.1764
0.1756
0.1748
0.174
0.1732
0.1724
0.1716
0.1708
0.17
0.1692
0.1684
0.1676
0.1668
0.166
0.1652
0.1644
0.1636
0.1628
0.162
0.1612
0.1604
0.1596
0.1588
0.158
0.1572
0.1564
0.1556
0.1548
0.154
0.1532
0.1524
0.1516
0.1508
0.15
0.1492
0.1484
0.1476
0.1468
0.146
0.1452
0.1444
0.1436
0.1428
0.142
0.1412
0.1404
0.1396
0.1388
0.138
0.1372
0.1364
0.1356
0.1348
0.134
0.1332
0.1324
0.1316
0.1308
0.13
0.1292
0.1284
0.1276
0.1268
0.126
0.1252
0.1244
0.1236
0.1228
0.122
0.1212
0.1204
0.1196
0.1188
0.118
0.1172
0.1164
0.1156
0.1148
0.114
0.1132
0.1124
0.1116
0.1108
0.11
0.1092
0.1084
0.1076
0.1068
0.106
0.1052
0.1044
0.1036
0.1028
0.102
0.1012
0.1004
0.0996
0.0988
0.098
0.0972
0.0964
0.0956
0.0948
0.094
0.0932
0.0924
0.0916
0.0908
0.09
0.0892
0.0884
0.0876
0.0868
0.086
0.0852
0.0844
0.0836
0.0828
0.082
0.0812
0.0804
0.0796
0.0788
0.078
0.0772
0.0764
0.0756
0.0748
0.074
0.0732
0.0724
0.0716
0.0708
0.07
0.0692
0.0684
0.0676
0.0668
0.066
0.0652
0.0644
0.0636
0.0628
0.062
0.0612
0.0604
0.0596
0.0588
0.058
0.0572
0.0564
0.0556
0.0548
0.054
0.0532
0.0524
0.0516
0.0508
0.05
0.0492
0.0484
0.0476
0.0468
0.046
0.0452
0.0444
0.0436
0.0428
0.042
0.0412
0.0404
0.0396
0.0388
0.038
0.0372
0.0364
0.0356
0.0348
0.034
0.0332
0.0324
0.0316
0.0308
0.03
0.0292
0.0284
0.0276
0.0268
0.026
0.0252
0.0244
0.0236
0.0228
0.022
0.0212
0.0204
0.0196
0.0188
0.018
0.0172
0.0164
0.0156
0.0148
0.014
0.0132
0.0124
0.0116
0.0108
0.01
0.0092
0.0084
0.0076
0.0068
0.006
0.0052
0.0044
0.0036
0.0028
0.002
0.0012
0.0004
) 
;

boundaryField
{
    front
    {
        type       fixedValue;
        value      uniform 1.12;
    }

    back
    {
        type       fixedValue;
        value      uniform 0.0;
    }

    right
    {
        type       empty;
    }

    left
    {
        type       empty;
    }

    TopAndBot
    {
        type       empty;
    }

}


// ************************************************************************* //
