/*---------------------------------------------------------------------------*\ 
| =========                 |                                                 |
| \\      /  F ield         | OpenFOAM: The Open Source CFD Toolbox           |
|  \\    /   O peration     | Version:  1.4                                   |
|   \\  /    A nd           | Web:      http://www.openfoam.org               |
|    \\/     M anipulation  |                                                 |
\*---------------------------------------------------------------------------*/ 

FoamFile
{
    version         2.0;
    format          ascii;

    root            "";
    case            "";
    instance        "";
    local           "";

    class           volScalarField;
    object          S;
}

// * * * * * * * * * * * * * * * * * * * * * * * * * * * * * * * * * * * * * //


dimensions      [0 1 0 0 0 0 0];

internalField   nonuniform List<scalar>
200
(  
1.047375
1.042125
1.036875
1.031625
1.026375
1.021125
1.015875
1.010625
1.005375
1.000125
0.994875
0.989625
0.984375
0.979125
0.973875
0.968625
0.963375
0.958125
0.952875
0.947625
0.942375
0.937125
0.931875
0.926625
0.921375
0.916125
0.910875
0.905625
0.900375
0.895125
0.889875
0.884625
0.879375
0.874125
0.868875
0.863625
0.858375
0.853125
0.847875
0.842625
0.837375
0.832125
0.826875
0.821625
0.816375
0.811125
0.805875
0.800625
0.795375
0.790125
0.784875
0.779625
0.774375
0.769125
0.763875
0.758625
0.753375
0.748125
0.742875
0.737625
0.732375
0.727125
0.721875
0.716625
0.711375
0.706125
0.700875
0.695625
0.690375
0.685125
0.679875
0.674625
0.669375
0.664125
0.658875
0.653625
0.648375
0.643125
0.637875
0.632625
0.627375
0.622125
0.616875
0.611625
0.606375
0.601125
0.595875
0.590625
0.585375
0.580125
0.574875
0.569625
0.564375
0.559125
0.553875
0.548625
0.543375
0.538125
0.532875
0.527625
0.522375
0.517125
0.511875
0.506625
0.501375
0.496125
0.490875
0.485625
0.480375
0.475125
0.469875
0.464625
0.459375
0.454125
0.448875
0.443625
0.438375
0.433125
0.427875
0.422625
0.417375
0.412125
0.406875
0.401625
0.396375
0.391125
0.385875
0.380625
0.375375
0.370125
0.364875
0.359625
0.354375
0.349125
0.343875
0.338625
0.333375
0.328125
0.322875
0.317625
0.312375
0.307125
0.301875
0.3529571
0.4326964
0.5056356
0.5680124
0.6165728
0.6487276
0.6626768
0.6574966
0.6331838
0.5906556
0.5317056
0.4589179
0.3755422
0.2853378
0.223125
0.217875
0.212625
0.207375
0.202125
0.196875
0.191625
0.186375
0.181125
0.175875
0.170625
0.165375
0.160125
0.154875
0.149625
0.144375
0.139125
0.133875
0.128625
0.123375
0.118125
0.112875
0.107625
0.102375
0.097125
0.091875
0.086625
0.081375
0.076125
0.070875
0.065625
0.060375
0.055125
0.049875
0.044625
0.039375
0.034125
0.028875
0.023625
0.018375
0.013125
0.007875
0.002625
) 
;

boundaryField
{
    front
    {
        type       fixedValue;
        value      uniform 1.05;
    }

    back
    {
        type       fixedValue;
        value      uniform 0.0;
    }

    right
    {
        type       empty;
    }

    left
    {
        type       empty;
    }

    TopAndBot
    {
        type       empty;
    }

}


// ************************************************************************* //
