/*--------------------------------*- C++ -*----------------------------------*\
| =========                 |                                                 |
| \\      /  F ield         | OpenFOAM: The Open Source CFD Toolbox           |
|  \\    /   O peration     | Version:  1.6.x                                 |
|   \\  /    A nd           | Web:      www.OpenFOAM.org                      |
|    \\/     M anipulation  |                                                 |
\*---------------------------------------------------------------------------*/
FoamFile
{
    version     2.0;
    format      ascii;
    class       volVectorField;
    location    "5399.9";
    object      HU;
}
// * * * * * * * * * * * * * * * * * * * * * * * * * * * * * * * * * * * * * //

dimensions      [0 2 -1 0 0 0 0];

internalField   nonuniform List<vector> 
25153
(
(0 0 0)
(0 0 0)
(0 0 0)
(0 0 0)
(0 0 0)
(0 0 0)
(0 0 0)
(0 0 0)
(0 0 0)
(0 0 0)
(0 0 0)
(0 0 0)
(0 0 0)
(0 0 0)
(0 0 0)
(0 0 0)
(0 0 0)
(0 0 0)
(0 0 0)
(0 0 0)
(0 0 0)
(0 0 0)
(0 0 0)
(0 0 0)
(0 0 0)
(0 0 0)
(0 0 0)
(0 0 0)
(0 0 0)
(0 0 0)
(0 0 0)
(0 0 0)
(0 0 0)
(0 0 0)
(0 0 0)
(0 0 0)
(0 0 0)
(0 0 0)
(0 0 0)
(0 0 0)
(0 0 0)
(0 0 0)
(0 0 0)
(0 0 0)
(0 0 0)
(0 0 0)
(0 0 0)
(0 0 0)
(0 0 0)
(0 0 0)
(0 0 0)
(0 0 0)
(0 0 0)
(0 0 0)
(0 0 0)
(0 0 0)
(0 0 0)
(0 0 0)
(0 0 0)
(0 0 0)
(0 0 0)
(0 0 0)
(0 0 0)
(0 0 0)
(0 0 0)
(0 0 0)
(0 0 0)
(0 0 0)
(0 0 0)
(0 0 0)
(0 0 0)
(0 0 0)
(0 0 0)
(0 0 0)
(0 0 0)
(0 0 0)
(0 0 0)
(0 0 0)
(0 0 0)
(0 0 0)
(0 0 0)
(0 0 0)
(0 0 0)
(0 0 0)
(0 0 0)
(0 0 0)
(0 0 0)
(0 0 0)
(0 0 0)
(0 0 0)
(0 0 0)
(0 0 0)
(0 0 0)
(0 0 0)
(0 0 0)
(0 0 0)
(0 0 0)
(0 0 0)
(0 0 0)
(0 0 0)
(0 0 0)
(0 0 0)
(0 0 0)
(0 0 0)
(0 0 0)
(0 0 0)
(0 0 0)
(0 0 0)
(0 0 0)
(0 0 0)
(0 0 0)
(0 0 0)
(0 0 0)
(0 0 0)
(0 0 0)
(0 0 0)
(0 0 0)
(0 0 0)
(0 0 0)
(0 0 0)
(0 0 0)
(0 0 0)
(0 0 0)
(0 0 0)
(0 0 0)
(0 0 0)
(0 0 0)
(0 0 0)
(0 0 0)
(0 0 0)
(0 0 0)
(0 0 0)
(0 0 0)
(0 0 0)
(0 0 0)
(0 0 0)
(0 0 0)
(0 0 0)
(0 0 0)
(0 0 0)
(0 0 0)
(0 0 0)
(0 0 0)
(0 0 0)
(0 0 0)
(0 0 0)
(0 0 0)
(0 0 0)
(0 0 0)
(0 0 0)
(0 0 0)
(0 0 0)
(0 0 0)
(0 0 0)
(0 0 0)
(0 0 0)
(0 0 0)
(0 0 0)
(0 0 0)
(0 0 0)
(0 0 0)
(0 0 0)
(0 0 0)
(0 0 0)
(0 0 0)
(-0.000406699 -0.000117647 0)
(-0.00592535 0.00050452 0)
(-0.00820006 -0.00580003 0)
(0 0 0)
(0 0 0)
(-0 -0 0)
(0 0 0)
(0 0 0)
(0 0 0)
(0 0 0)
(0 0 0)
(0 0 0)
(0 0 0)
(0 0 0)
(0 0 0)
(-0.0212397 0.0118611 0)
(-0.0201004 -0.0117341 0)
(-0.0510913 0.00873256 0)
(-0.0270027 -0.00303643 0)
(0.00193461 7.23837e-05 0)
(-0 -0 0)
(-0 0 0)
(0 0 0)
(0 -0 0)
(0 0 0)
(0 0 0)
(0 0 0)
(-0 -0 0)
(0 0 0)
(0 0 0)
(0 0 0)
(0 0 0)
(0 0 0)
(0 0 0)
(0 0 0)
(0 0 0)
(0 0 0)
(0 0 0)
(0 0 0)
(0 0 0)
(0 0 0)
(0 0 0)
(0 0 0)
(0 0 0)
(0 0 0)
(0 0 0)
(0 0 0)
(0 0 0)
(0 0 0)
(0 0 0)
(0 0 0)
(0 0 0)
(0 0 0)
(0 0 0)
(0 0 0)
(0 0 0)
(0 0 0)
(0 0 0)
(0 0 0)
(0 0 0)
(0 0 0)
(0 0 0)
(0 0 0)
(0 0 0)
(0 0 0)
(0 0 0)
(0 0 0)
(0 0 0)
(0 0 0)
(0 0 0)
(0 0 0)
(0 0 0)
(0 0 0)
(0 0 0)
(0 0 0)
(0 0 0)
(0 0 0)
(0 0 0)
(0 0 0)
(0 0 0)
(0 0 0)
(0 0 0)
(0 0 0)
(0 0 0)
(0 0 0)
(0 0 0)
(0 0 0)
(0 0 0)
(0 0 0)
(0 0 0)
(0 0 0)
(0 0 0)
(0 0 0)
(0 0 0)
(0 0 0)
(0 0 0)
(0 0 0)
(0 0 0)
(0 0 0)
(0 0 0)
(0 0 0)
(0 0 0)
(0 0 0)
(0 0 0)
(0 0 0)
(0 0 0)
(0 0 0)
(0 0 0)
(0 0 0)
(0 0 0)
(0 0 0)
(0 0 0)
(0 0 0)
(0 0 0)
(0 0 0)
(0 0 0)
(0 0 0)
(0 0 0)
(0 0 0)
(0 0 0)
(0 0 0)
(0 0 0)
(0 0 0)
(0 0 0)
(0 0 0)
(0 0 0)
(0 0 0)
(0 0 0)
(0 0 0)
(0 0 0)
(0 0 0)
(0 0 0)
(0 0 0)
(0 0 0)
(0 0 0)
(0 0 0)
(0 0 0)
(0 0 0)
(0 0 0)
(0 0 0)
(0 0 0)
(0 0 0)
(0 0 0)
(0 0 0)
(0 0 0)
(0 0 0)
(0 0 0)
(0 0 0)
(0 0 0)
(0 0 0)
(0 0 0)
(0 0 0)
(0 0 0)
(0 0 0)
(0 0 0)
(0 0 0)
(0 0 0)
(0 0 0)
(0 0 0)
(0 0 0)
(0 0 0)
(0 0 0)
(0 0 0)
(0 0 0)
(0 0 0)
(0 0 0)
(0 0 0)
(0 0 0)
(0 0 0)
(0 0 0)
(0 0 0)
(0 0 0)
(0 0 0)
(0 0 0)
(0 0 0)
(0 0 0)
(0 0 0)
(0 0 0)
(0 0 0)
(0 0 0)
(0 0 0)
(0 0 0)
(0 0 0)
(0 0 0)
(0 0 0)
(0 0 0)
(0 0 0)
(0 0 0)
(0 0 0)
(0 0 0)
(0 0 0)
(0 0 0)
(0 0 0)
(0 0 0)
(0 0 0)
(0 0 0)
(0 0 0)
(0 0 0)
(0 0 0)
(0 0 0)
(0 0 0)
(0 0 0)
(0 0 0)
(0 0 0)
(0 0 0)
(0 0 0)
(0 0 0)
(0 0 0)
(0 0 0)
(0 0 0)
(0 0 0)
(0 0 0)
(0 0 0)
(0 0 0)
(0 0 0)
(0 0 0)
(0 0 0)
(0 0 0)
(0 0 0)
(0 0 0)
(0 0 0)
(0 0 0)
(0 0 0)
(0 0 0)
(0 0 0)
(0 0 0)
(0 0 0)
(0 0 0)
(0 0 0)
(0 0 0)
(0 0 0)
(0 0 0)
(0 0 0)
(0 0 0)
(0 0 0)
(0 0 0)
(0 0 0)
(0 0 0)
(0 0 0)
(0 0 0)
(0 0 0)
(0 0 0)
(0 0 0)
(0 0 0)
(0 0 0)
(0 0 0)
(0 0 0)
(0 0 0)
(0 0 0)
(0 0 0)
(0 0 0)
(0 0 0)
(0 0 0)
(0 0 0)
(0 0 0)
(0 0 0)
(0 0 0)
(0 0 0)
(0 0 0)
(0 0 0)
(0 0 0)
(0 0 0)
(0 0 0)
(0 0 0)
(0 0 0)
(0 0 0)
(0 0 0)
(0 0 0)
(0 0 0)
(0 0 0)
(0 0 0)
(0 0 0)
(0 0 0)
(0 0 0)
(0 0 0)
(-0 -0 0)
(-0.00435092 0.000794348 0)
(-0.0283426 0.0213293 0)
(-0.0414318 0.0438913 0)
(-0.0964681 0.115993 0)
(-0.0998227 0.0752065 0)
(-0.113211 0.0807413 0)
(-0.10145 0.0610703 0)
(-0.0453387 0.00779529 0)
(-0.0127595 0.00364595 0)
(-0.0070124 -0.00483761 0)
(-0.0798529 0.0533552 0)
(-0.0959468 0.0650607 0)
(-0.105991 0.0736368 0)
(-0.0933463 0.0578833 0)
(-0.128772 0.110233 0)
(-0.149308 0.130113 0)
(-0.153394 0.209284 0)
(-0.1313 0.175083 0)
(-0.15944 0.18435 0)
(-0.128637 0.172767 0)
(-0.115164 0.172003 0)
(-0.125594 0.143147 0)
(-0.13329 0.146543 0)
(-0.0760815 0.0471144 0)
(-0.109394 0.0510567 0)
(-0.0969658 0.0669017 0)
(-0.0960222 0.101888 0)
(-0.0958235 0.12163 0)
(-0.0660938 0.0279427 0)
(-0.0753636 0.127605 0)
(-0.156857 0.143497 0)
(-0.174675 0.152845 0)
(-0.155712 0.1477 0)
(-0.122737 0.152666 0)
(-0.128342 0.180975 0)
(-0.141611 0.124114 0)
(-0.0804034 0.048967 0)
(-0.13236 0.128875 0)
(-0.12133 0.0915172 0)
(-0.0955579 0.0392029 0)
(-0.139656 0.123105 0)
(-0.136696 0.113878 0)
(-0.118048 0.173405 0)
(-0.105348 0.159027 0)
(-0.0915285 0.144555 0)
(-0.0670715 0.0731448 0)
(-0.0717783 0.0704444 0)
(-0.0896837 0.0902116 0)
(-0.0202615 0.0912249 0)
(-0.0117447 0.0540113 0)
(-0.00723979 0.0153596 0)
(-0.00209035 0.00154407 0)
(-0.000687512 0.00491695 0)
(-0.0131649 0.0109285 0)
(-0.0328507 0.0212288 0)
(-0.0378348 0.0416466 0)
(-0.0281873 0.0955545 0)
(-0.061523 0.107795 0)
(-0.148148 0.1375 0)
(-0.133765 0.145778 0)
(-0.155806 0.188094 0)
(-0.11954 0.191992 0)
(-0.131425 0.155337 0)
(-0.128218 0.174363 0)
(-0.0934955 0.0956415 0)
(-0.0613781 0.0283909 0)
(-0.0525783 0.0270014 0)
(-0.0757424 0.06712 0)
(-0.0607668 0.014357 0)
(-0.0112483 -0.000217583 0)
(-0.060648 0.0369706 0)
(-0.0640657 0.0203028 0)
(-0.0186014 0.00303838 0)
(-0.0509984 0.0744371 0)
(-0.0845936 0.0674514 0)
(-0.0402057 -0.012816 0)
(-0.0360182 0.0803645 0)
(-0.0715592 0.129139 0)
(-0.105734 0.110185 0)
(-0.140673 0.106866 0)
(-0.141672 0.117263 0)
(-0.164694 0.0548824 0)
(-0.1039 -0.020472 0)
(0 0 0)
(0 0 0)
(0 0 0)
(0 0 0)
(0 0 0)
(0 0 0)
(0 0 0)
(0 0 0)
(0 0 0)
(0 0 0)
(0 0 0)
(0 0 0)
(0 0 0)
(0 0 0)
(-0 -0 0)
(0 0 0)
(0 0 0)
(0 0 0)
(0 0 0)
(0 0 0)
(0 0 0)
(0 0 0)
(0 0 0)
(0 0 0)
(0 0 0)
(-0.0689507 -0.0296041 0)
(-0.0404103 -0.0260291 0)
(-0.131578 0.0248789 0)
(-0.101707 0.0439382 0)
(-0.0692495 0.0416355 0)
(-0.0770244 0.0402987 0)
(0.0111509 -0.0285803 0)
(-0.0286703 -0.0627482 0)
(-0.0391608 -0.0386564 0)
(0.0318385 -0.00140831 0)
(0.0228085 0.019877 0)
(0.00408226 0.00285544 0)
(-0.00525289 -0.00116734 0)
(0.000340714 -4.55518e-05 0)
(-0 0 0)
(-0 0 0)
(0 0 0)
(0 0 0)
(0 0 0)
(0 0 0)
(0 0 0)
(0 0 0)
(0 0 0)
(-0.0118124 -0.00905376 0)
(-0.014279 0.0287072 0)
(-0.0655531 0.0205901 0)
(-0.0543591 0.0103865 0)
(-0.00569324 0.0316451 0)
(-0.0117925 0.0418415 0)
(-0.00482308 0.0168246 0)
(-0.0498857 0.0188536 0)
(-0.0343542 -0.0446976 0)
(-0.0459708 0.0182562 0)
(-0.0168563 0.0484355 0)
(-0.00104422 0.0199414 0)
(-0.0240454 0.0177388 0)
(-0.0432487 0.0129188 0)
(-0.0815468 0.0154241 0)
(-0.0773577 0.0361576 0)
(-0.12673 0.0456595 0)
(-0.13238 0.060509 0)
(-0.110429 0.0451232 0)
(-0.0388711 0.040157 0)
(-0.0996971 0.0688192 0)
(-0.179283 0.0932621 0)
(-0.14308 0.13179 0)
(-0.112268 0.130561 0)
(-0.0944329 0.104888 0)
(-0.0916478 0.103849 0)
(-0.0833795 0.0771138 0)
(-0.0917908 0.0867306 0)
(-0.0540169 0.0728939 0)
(-0.00983867 0.00982485 0)
(-0.0549117 0.0236887 0)
(-0.05516 0.028829 0)
(-0.0238057 0.0210721 0)
(-0.0315109 0.0478401 0)
(-0.0208795 0.0370725 0)
(-0.030876 0.0315159 0)
(-0.0420818 0.0738331 0)
(-0.0744407 0.0627392 0)
(-0.061912 0.0457916 0)
(-0.023016 0.0267954 0)
(-0.0302716 0.0267282 0)
(-0.0074446 0.000867259 0)
(0.00034028 0.00166544 0)
(-4.85221e-05 0.00118213 0)
(0 -0 0)
(0 0 0)
(0 0 0)
(0 0 0)
(0 0 0)
(0 0 0)
(0 0 0)
(0 0 0)
(0 0 0)
(0 0 0)
(0 0 0)
(0 0 0)
(0 -0 0)
(0.00344611 0.0132696 0)
(-0.00618357 0.00250956 0)
(0.0115067 0.00293612 0)
(-0.000625797 -0.000785052 0)
(2.10726e-05 0.000409557 0)
(0 -0 0)
(0 0 0)
(-0 -0 0)
(2.54828e-05 6.97399e-05 0)
(-0.000179319 0.000477974 0)
(-0.00735064 0.00592914 0)
(-3.40231e-05 0.000241488 0)
(0 -0 0)
(-0.0107052 0.0158161 0)
(0.00393274 0.00882997 0)
(-0.0661844 0.0130077 0)
(-0.0485395 0.0174323 0)
(-0.0559397 0.0281525 0)
(-0.0859405 0.00886009 0)
(-0.0886016 0.032283 0)
(-0.120762 0.0269482 0)
(-0.0567966 0.0711437 0)
(-0.0306444 0.0727578 0)
(-0.0284989 0.0481978 0)
(0 -0 0)
(0 0 0)
(0 0 0)
(0 0 0)
(0 0 0)
(0 0 0)
(0 0 0)
(0 0 0)
(0 0 0)
(0 0 0)
(0 0 0)
(0 0 0)
(0 0 0)
(0 0 0)
(-0 -0 0)
(-0 0 0)
(0.0364391 0.033348 0)
(-0.0263198 0.0468951 0)
(-0.0477538 0.0462418 0)
(-0.0180645 0.0585759 0)
(-0.0503127 0.0867823 0)
(-0.0578542 0.0238348 0)
(-0.0222498 0.0234247 0)
(-0.00239175 0.0112457 0)
(-0.00843345 0.00617973 0)
(-0.0158055 0.0113331 0)
(-0.0164119 0.0159833 0)
(0 -0 0)
(-0.0177861 -0.0126796 0)
(-0.0110822 0.0852962 0)
(-0.0543204 0.0863531 0)
(-0.108077 0.155126 0)
(-0.168725 0.12569 0)
(-0.187804 0.123839 0)
(-0.124596 0.144822 0)
(-0.106721 0.133823 0)
(-0.158318 0.106616 0)
(-0.163399 0.0683947 0)
(-0.190328 0.107268 0)
(-0.166594 0.0567813 0)
(-0.108803 0.0226919 0)
(-0.133071 0.0486183 0)
(-0.141985 0.0730323 0)
(-0.104329 0.0233745 0)
(-0.035835 -0.00337348 0)
(-0.0159318 -0.00180152 0)
(-0.0116728 0.00257888 0)
(-0.0134203 0.00142028 0)
(0.0215728 0.0416001 0)
(-0.00915472 -0.0197202 0)
(-0.0437287 -0.0657174 0)
(0 0 0)
(0 0 0)
(0 0 0)
(0.00344096 -0.0299068 0)
(-0.0648613 0.00490881 0)
(0 0 0)
(0 0 0)
(0 0 0)
(0 0 0)
(0 0 0)
(0 0 0)
(0 0 0)
(0 0 0)
(0 0 0)
(0 0 0)
(0 0 0)
(0 0 0)
(0 0 0)
(0 0 0)
(0 0 0)
(0 0 0)
(0 0 0)
(0 0 0)
(0 0 0)
(0 0 0)
(0 0 0)
(0 0 0)
(0 0 0)
(0 0 0)
(0 0 0)
(0 0 0)
(0 0 0)
(0 0 0)
(0 0 0)
(0 0 0)
(0 0 0)
(0 0 0)
(0 0 0)
(0 0 0)
(0 0 0)
(0 0 0)
(0 0 0)
(0 0 0)
(0 0 0)
(0 0 0)
(0 0 0)
(0 0 0)
(0 0 0)
(0 0 0)
(0 0 0)
(0 0 0)
(0 0 0)
(0 0 0)
(0 0 0)
(0 0 0)
(0 0 0)
(0 -0 0)
(0 0 0)
(0 0 0)
(0 0 0)
(0 0 0)
(0 0 0)
(0 0 0)
(0 0 0)
(0 0 0)
(0 0 0)
(0 0 0)
(0 0 0)
(0 0 0)
(0 0 0)
(0 0 0)
(0 0 0)
(0 0 0)
(0 0 0)
(0 0 0)
(0 0 0)
(0 0 0)
(0 0 0)
(0 0 0)
(0 0 0)
(0 0 0)
(0 0 0)
(0 0 0)
(0 0 0)
(0 0 0)
(0 0 0)
(0 0 0)
(0 0 0)
(0 0 0)
(0 0 0)
(0 0 0)
(0 0 0)
(0 0 0)
(0 0 0)
(0 0 0)
(0 0 0)
(0 0 0)
(0 0 0)
(0 0 0)
(0 0 0)
(0 0 0)
(0 0 0)
(0 0 0)
(0 0 0)
(0 0 0)
(0 0 0)
(0 0 0)
(0 0 0)
(0 0 0)
(0 0 0)
(0 0 0)
(0 0 0)
(0 0 0)
(0 0 0)
(0 0 0)
(0 0 0)
(0 0 0)
(0 0 0)
(0 0 0)
(0 0 0)
(0 0 0)
(0 0 0)
(0 0 0)
(0 0 0)
(0 0 0)
(0 0 0)
(0 0 0)
(0 0 0)
(0 0 0)
(0 0 0)
(0 0 0)
(0 0 0)
(0 0 0)
(0 0 0)
(0 0 0)
(0 0 0)
(0 0 0)
(0 0 0)
(0 0 0)
(0 0 0)
(0 0 0)
(0 0 0)
(0 0 0)
(0 0 0)
(0 0 0)
(0 0 0)
(0 0 0)
(0 0 0)
(0 0 0)
(0 0 0)
(0 0 0)
(0 0 0)
(0 0 0)
(0 0 0)
(0 0 0)
(0 0 0)
(0 0 0)
(0 0 0)
(0 0 0)
(0 0 0)
(0 0 0)
(0 0 0)
(0 0 0)
(0 0 0)
(0 0 0)
(0 0 0)
(0 0 0)
(0 0 0)
(0 0 0)
(0 0 0)
(0 0 0)
(0 0 0)
(0 0 0)
(0 0 0)
(0 0 0)
(0 0 0)
(0 0 0)
(0 0 0)
(0 0 0)
(0 0 0)
(0 0 0)
(0 0 0)
(0 0 0)
(0 0 0)
(0 0 0)
(0 0 0)
(0 0 0)
(0 0 0)
(0 0 0)
(0 0 0)
(0 0 0)
(0 0 0)
(0 0 0)
(0 0 0)
(0 0 0)
(0 0 0)
(0 0 0)
(0 0 0)
(0 0 0)
(0 0 0)
(0 0 0)
(0 0 0)
(0 0 0)
(0 0 0)
(0 0 0)
(0 0 0)
(0 0 0)
(0 0 0)
(0 0 0)
(0 0 0)
(0 0 0)
(0 0 0)
(0 0 0)
(0 0 0)
(0 0 0)
(0 0 0)
(0 0 0)
(0 0 0)
(0 0 0)
(0 0 0)
(0 0 0)
(0 0 0)
(0 0 0)
(0 0 0)
(0 0 0)
(0 0 0)
(0 0 0)
(0 0 0)
(0 0 0)
(0 0 0)
(0 0 0)
(0 0 0)
(0 0 0)
(0 0 0)
(0 0 0)
(0 0 0)
(0 0 0)
(0 0 0)
(0 0 0)
(0 0 0)
(0 0 0)
(0 0 0)
(0 0 0)
(0 0 0)
(0 0 0)
(0 0 0)
(0 0 0)
(0 0 0)
(0 0 0)
(0 0 0)
(0 0 0)
(0 0 0)
(0 0 0)
(0 0 0)
(0 0 0)
(0 0 0)
(0 0 0)
(0 0 0)
(0 0 0)
(0 0 0)
(0 0 0)
(0 0 0)
(0 0 0)
(0 0 0)
(0 0 0)
(0 0 0)
(0 0 0)
(0 0 0)
(0 0 0)
(0 0 0)
(0 0 0)
(0 0 0)
(0 0 0)
(0 0 0)
(0 0 0)
(0 0 0)
(0 0 0)
(0 0 0)
(0 0 0)
(0 0 0)
(0 0 0)
(0 0 0)
(0 0 0)
(0 0 0)
(0 0 0)
(0 0 0)
(0 0 0)
(0 0 0)
(0 0 0)
(0 0 0)
(0 0 0)
(0 0 0)
(0 0 0)
(0 0 0)
(0 0 0)
(0 0 0)
(0 0 0)
(0 0 0)
(0 0 0)
(0 0 0)
(0 0 0)
(0 0 0)
(0 0 0)
(0 0 0)
(0 0 0)
(0 0 0)
(0 0 0)
(0 0 0)
(0 0 0)
(0 0 0)
(0 0 0)
(0 0 0)
(0 0 0)
(0 0 0)
(0 0 0)
(0 0 0)
(0 0 0)
(0 0 0)
(-0.0236261 -0.0340052 0)
(-0.0619751 -0.0282005 0)
(0.00389461 0.0521396 0)
(0.00062207 -0.00118781 0)
(-0.000892927 -0.000772859 0)
(-0.00019454 -0.000152267 0)
(0.000901005 0.00217801 0)
(0.000188025 0.000592973 0)
(-0.000284165 0.00107094 0)
(-0.00210052 0.000698459 0)
(-0.00318318 0.00170465 0)
(-0.0038193 0.000557595 0)
(-0.00277979 0.00292448 0)
(-0.00207837 0.000202724 0)
(-0.000673087 0.000322948 0)
(0 0 0)
(-0.00611559 0.00677853 0)
(-0.00501489 0.00792742 0)
(0.00038738 0.00855398 0)
(0.00268814 0.00812808 0)
(0.00143719 0.00443742 0)
(-0.00816424 0.00902755 0)
(-0.00945003 0.00400765 0)
(-0.0412325 0.0136765 0)
(-0.0744922 0.0764531 0)
(-0.0964171 0.0715604 0)
(-0.0937809 0.132778 0)
(-0.0594705 0.142013 0)
(-0.0352808 0.0756699 0)
(-0.0399073 0.0785395 0)
(-0.013215 0.0311765 0)
(-0.012556 0.00969093 0)
(-0.00873604 0.00459085 0)
(-0.0139247 0.00643889 0)
(-0.0127786 0.0173043 0)
(0.00198658 0.0155354 0)
(0.0168613 0.00780738 0)
(-0.0580032 0.00130636 0)
(-0.0668446 -0.0334807 0)
(-0.0383763 0.0223027 0)
(-0.0894025 0.0628046 0)
(-0.084495 0.0470066 0)
(-0.0734919 0.0672902 0)
(-0.11612 0.0548915 0)
(-0.145969 0.080319 0)
(-0.144745 0.0788346 0)
(-0.141049 0.0848802 0)
(-0.0970577 0.133512 0)
(-0.123305 0.0533613 0)
(-0.113752 0.0816047 0)
(-0.0573253 0.0196255 0)
(-0.0160763 0.0114673 0)
(-0.000821275 0.00481619 0)
(-0.00146548 0.00559953 0)
(-0.00228382 0.00462799 0)
(-0.0015052 0.00268434 0)
(0.00152958 0.00447847 0)
(0.00176626 0.00504826 0)
(0.0017698 0.00585284 0)
(0.00784169 0.0192649 0)
(0.0328222 -0.0392377 0)
(-0.0623825 0.0589093 0)
(-0.102094 0.0103895 0)
(-0.0279991 -0.0492355 0)
(-0.0882433 0.0123758 0)
(0 -0 0)
(-0 0 0)
(0.0150586 -0.128376 0)
(-0 -0 0)
(-0 -0 0)
(-0 -0 0)
(0 0 0)
(-0 -0 0)
(0 0 0)
(-0 -0 0)
(0 0 0)
(0 0 0)
(0 0 0)
(0 0 0)
(0 0 0)
(0 0 0)
(0 0 0)
(0 0 0)
(0 0 0)
(0 0 0)
(0 0 0)
(0 0 0)
(0 0 0)
(0 0 0)
(0 0 0)
(0 0 0)
(0 0 0)
(0 0 0)
(0 0 0)
(0 0 0)
(0 0 0)
(0 0 0)
(0 0 0)
(0 0 0)
(0 0 0)
(0 0 0)
(0 0 0)
(0 0 0)
(0 0 0)
(0 0 0)
(0 0 0)
(0 0 0)
(0 0 0)
(0 0 0)
(0 0 0)
(0 0 0)
(0 0 0)
(0 0 0)
(0 0 0)
(0 0 0)
(0 0 0)
(0 0 0)
(0 0 0)
(0 0 0)
(0 0 0)
(0 0 0)
(0 0 0)
(0 0 0)
(0 0 0)
(0 0 0)
(0 0 0)
(0 0 0)
(-0 0 0)
(-0.00197477 -0.0155534 0)
(0.00199703 -0.000476126 0)
(-0.0432722 0.0266317 0)
(-0.0293862 0.00279846 0)
(0 0 0)
(-0 0 0)
(0 0 0)
(0 0 0)
(0 0 0)
(0 0 0)
(0 0 0)
(0 0 0)
(0 0 0)
(-0.00530445 -0.000641439 0)
(0.000917201 -0.000109565 0)
(-0 0 0)
(0 0 0)
(-0.0237327 0.0159451 0)
(-0.0290495 0.0440134 0)
(-0.00136445 0.000881142 0)
(-0.0137142 0.0170088 0)
(-0.0579706 0.161129 0)
(-0.0786366 0.136223 0)
(-0.0962364 0.115012 0)
(-0.0895277 0.114434 0)
(-0.0646088 0.0766533 0)
(-0.0555605 0.0911287 0)
(-0.0551837 0.0875936 0)
(-0.0685156 0.124824 0)
(-0.0690698 0.122494 0)
(-0.0724096 0.120254 0)
(-0.0891351 0.245284 0)
(-0.0681487 0.260045 0)
(-0.0416639 0.180512 0)
(-0.043621 0.0777255 0)
(-0.0293201 0.0453723 0)
(-0.0393142 0.0576056 0)
(-0.0466429 0.0582258 0)
(-0.0316704 0.056666 0)
(-0.0213479 0.0764964 0)
(0.00428353 0.0575493 0)
(-0.000590947 0.00219384 0)
(-0.000352067 -0.000145076 0)
(-0.0116314 0.0620101 0)
(-0.0808398 0.134305 0)
(-0.0951953 0.158923 0)
(-0.151955 0.137794 0)
(-0.149036 0.0827478 0)
(-0.124812 0.0340868 0)
(-0.176519 0.0858271 0)
(-0.19229 0.102639 0)
(-0.210542 0.158208 0)
(-0.191203 0.206016 0)
(-0.18635 0.163265 0)
(-0.130388 0.164867 0)
(-0.0535002 0.0320608 0)
(0.0105261 0.0521024 0)
(-0 -0 0)
(-0 0 0)
(-0 -0 0)
(0.013961 0.0482573 0)
(-0.0605763 0.0218015 0)
(-0.0342664 0.0368427 0)
(-0.104621 0.109025 0)
(-0.100474 0.130133 0)
(-0.106312 0.123201 0)
(-0.127407 0.145315 0)
(-0.0574392 0.124366 0)
(-0.113361 0.144897 0)
(-0.126324 0.153117 0)
(-0.092326 0.126602 0)
(-0.063947 0.0357559 0)
(0.0263664 -0.0035626 0)
(-0.00366608 0.00458541 0)
(-0 -0 0)
(0 -0 0)
(0 0 0)
(0 0 0)
(0 0 0)
(0 0 0)
(0 0 0)
(0 0 0)
(0 0 0)
(0 0 0)
(0 0 0)
(0 0 0)
(0 0 0)
(0 0 0)
(0 0 0)
(0 0 0)
(0 0 0)
(0 0 0)
(0 0 0)
(0 0 0)
(0 0 0)
(0 0 0)
(0 0 0)
(0 0 0)
(0 0 0)
(0 0 0)
(0 0 0)
(0 0 0)
(0 0 0)
(0 0 0)
(0 0 0)
(0 0 0)
(0 0 0)
(0 0 0)
(0 0 0)
(0 0 0)
(0 0 0)
(0 0 0)
(0 0 0)
(0 0 0)
(0 0 0)
(0 0 0)
(0 0 0)
(0 0 0)
(0 0 0)
(0 0 0)
(0 0 0)
(0 0 0)
(0 0 0)
(0 0 0)
(0 0 0)
(0 0 0)
(0 0 0)
(0 0 0)
(0 0 0)
(0 0 0)
(0 0 0)
(0 0 0)
(0 0 0)
(0 0 0)
(0 0 0)
(0 0 0)
(0 0 0)
(0 0 0)
(0 0 0)
(0 0 0)
(0 0 0)
(0 0 0)
(0 0 0)
(0 0 0)
(0 0 0)
(0 0 0)
(0 0 0)
(0 0 0)
(0 0 0)
(-0 -0 0)
(0 0 0)
(-0 -0 0)
(0 0 0)
(0 0 0)
(0 0 0)
(0 0 0)
(0 0 0)
(0 0 0)
(0 0 0)
(0 0 0)
(0 -0 0)
(-0 -0 0)
(-0.0390292 0.066889 0)
(-0.0578748 0.0666146 0)
(-0.0462307 0.0660237 0)
(-0.0589946 0.0837188 0)
(-0.0497609 0.0293543 0)
(-0.0495286 0.050741 0)
(-0.0832151 0.114179 0)
(-0.0863821 0.103839 0)
(-0.0938978 0.129429 0)
(-0.100761 0.131699 0)
(-0.100176 0.106782 0)
(-0.0978262 0.108489 0)
(-0.0480358 0.0757893 0)
(-0.0419557 0.0592234 0)
(0.0209049 0.0604883 0)
(-0.146083 0.15333 0)
(-0.057131 0.102842 0)
(-0.121635 0.16779 0)
(-0.0638186 0.0951714 0)
(-0 0 0)
(-0 0 0)
(-0 -0 0)
(0 0 0)
(0 0 0)
(0 0 0)
(0 0 0)
(0 0 0)
(0 0 0)
(0 0 0)
(0 0 0)
(0 0 0)
(0 0 0)
(0 0 0)
(0 0 0)
(0 0 0)
(0 0 0)
(0 0 0)
(0 0 0)
(0 0 0)
(0 0 0)
(0 0 0)
(0 0 0)
(0 0 0)
(0 0 0)
(0 0 0)
(0 0 0)
(0 0 0)
(0 0 0)
(0 0 0)
(0 0 0)
(0 0 0)
(0 0 0)
(0 0 0)
(0 0 0)
(0 0 0)
(-0 0 0)
(0 0 0)
(0 0 0)
(-0 -0 0)
(0 0 0)
(-0 -0 0)
(-0.0520808 0.0690444 0)
(-0.0152226 0.0262785 0)
(-0.0103648 0.0166381 0)
(-0.0567604 0.037259 0)
(-0.0734123 0.0415427 0)
(-0.0906472 0.0467175 0)
(-0.0966475 0.0680026 0)
(-0.098939 0.0710338 0)
(-0.123044 0.068785 0)
(-0.0611785 0.0750321 0)
(-0.0390368 0.0649056 0)
(-0.0386699 0.0372285 0)
(-0.170292 0.115563 0)
(-0.160493 0.103295 0)
(-0.203004 0.141477 0)
(-0.178442 0.113813 0)
(-0.168595 0.110527 0)
(-0.171952 0.128992 0)
(-0.169272 0.118867 0)
(-0.195893 0.127084 0)
(-0.175524 0.0957249 0)
(-0.166017 0.113611 0)
(-0.124592 0.0952447 0)
(-0.038642 0.0605563 0)
(-0.0279574 0.0526395 0)
(-0.0209002 0.0522256 0)
(-0.00461007 -0.054443 0)
(-0.0648795 -0.0778156 0)
(-0.00162371 0.00448564 0)
(-0.1218 0.116502 0)
(-0.109749 0.0966693 0)
(-0.137223 0.102791 0)
(-0.102346 0.124616 0)
(-0.126262 0.115943 0)
(-0.092967 0.111713 0)
(-0.0686785 0.114824 0)
(-0.0807381 0.0591573 0)
(-0.0810552 0.0711001 0)
(-0.135984 0.139343 0)
(-0.113449 0.120021 0)
(-0.119325 0.118761 0)
(-0.118122 0.119912 0)
(-0.103701 0.0921611 0)
(-0.10914 0.0845193 0)
(-0.110246 0.0924324 0)
(-0.134602 0.106218 0)
(-0.127599 0.0980572 0)
(-0.13205 0.103042 0)
(-0.116423 0.0918587 0)
(-0.129988 0.0931051 0)
(-0.106478 0.0687675 0)
(-0.0883154 0.0353359 0)
(-0.0561228 0.0428429 0)
(0.000267871 -0.0110933 0)
(-0.000741311 -1.19973e-05 0)
(9.93921e-05 0.000124546 0)
(-0 0 0)
(0 -0 0)
(0 0 0)
(-0 0 0)
(0 0 0)
(0 0 0)
(0 0 0)
(0 0 0)
(0 0 0)
(0 0 0)
(0 0 0)
(0 0 0)
(0 0 0)
(0 0 0)
(-0.0473563 0.0401517 0)
(-0.122466 0.0650371 0)
(-0.126936 0.0908686 0)
(-0.107243 0.0675744 0)
(-0.128046 0.0655897 0)
(-0.132219 0.0937127 0)
(-0.12285 0.0716848 0)
(-0.0961059 0.0612494 0)
(-0.131586 0.0932547 0)
(-0.0884549 0.126519 0)
(-0.143948 0.125577 0)
(-0.169256 0.118641 0)
(-0.160564 0.107173 0)
(-0.129978 0.0757425 0)
(-0.133965 0.0695659 0)
(-0.0358744 0.0483907 0)
(-0.0968516 0.0587091 0)
(0.0937548 -0.00283053 0)
(0.0193388 -0.00539842 0)
(-0.00434346 0.0212812 0)
(0 -0 0)
(0 0 0)
(0 0 0)
(0 0 0)
(0 0 0)
(0 0 0)
(0 0 0)
(0 0 0)
(0 0 0)
(0 0 0)
(0 0 0)
(0 0 0)
(0 0 0)
(0 0 0)
(0 0 0)
(0 0 0)
(0 0 0)
(0 0 0)
(0 0 0)
(0 0 0)
(0 0 0)
(0 0 0)
(0 0 0)
(0 0 0)
(0 0 0)
(0 0 0)
(0 0 0)
(0 0 0)
(0 0 0)
(0 0 0)
(0 0 0)
(-0 0 0)
(0 -0 0)
(0 0 0)
(0 -0 0)
(-0.00859909 0.05346 0)
(0 0 0)
(0 0 0)
(0 0 0)
(0 0 0)
(0 0 0)
(0 0 0)
(0 0 0)
(0 0 0)
(0 0 0)
(0 0 0)
(0 0 0)
(0 0 0)
(0 0 0)
(0 0 0)
(0 0 0)
(0 0 0)
(0 0 0)
(0 0 0)
(0 0 0)
(0 0 0)
(0 0 0)
(0 0 0)
(0 0 0)
(0 0 0)
(0 0 0)
(-0 0 0)
(0 -0 0)
(-0.0285111 0.0821899 0)
(-0.0394715 0.0407446 0)
(-0.0273853 0.0523845 0)
(-0.0706214 0.0494022 0)
(-0.069495 0.0418672 0)
(-0.0791103 0.0657207 0)
(-0.089244 0.0653438 0)
(-0.085698 0.0370728 0)
(-0.0957286 0.0284368 0)
(-0.173381 0.0890627 0)
(-0.1856 0.0934282 0)
(-0.187977 0.0885279 0)
(-0.181125 0.106048 0)
(-0.168296 0.0915938 0)
(-0.157263 0.0995256 0)
(-0.153924 0.0964327 0)
(-0.150418 0.0937909 0)
(-0.129178 0.0699827 0)
(-0.0886789 0.0932755 0)
(-0.0726495 0.0281768 0)
(-0.163385 0.0550202 0)
(-0.117427 0.0840413 0)
(-0.112751 0.0888515 0)
(-0.125605 0.0828834 0)
(-0.131994 0.0780676 0)
(-0.126386 0.102508 0)
(-0.127803 0.104584 0)
(-0.129207 0.119569 0)
(-0.128628 0.0993147 0)
(-0.117454 0.0948751 0)
(-0.134107 0.113539 0)
(-0.143237 0.103605 0)
(-0.109137 0.0775749 0)
(-0.0648095 0.0691771 0)
(-0.0754383 0.0374773 0)
(-0.00627067 0.00363101 0)
(-0.00271361 -9.01272e-05 0)
(0 0 0)
(0 0 0)
(0 0 0)
(0 0 0)
(0 0 0)
(-0 0 0)
(0 0 0)
(0 0 0)
(0 0 0)
(0 0 0)
(0 0 0)
(0 0 0)
(0 0 0)
(0 0 0)
(0 0 0)
(0 0 0)
(0 0 0)
(0 0 0)
(0 0 0)
(0 0 0)
(0 0 0)
(0 0 0)
(0 0 0)
(0 0 0)
(0 0 0)
(0 0 0)
(0 0 0)
(0 0 0)
(0 0 0)
(0 0 0)
(0 0 0)
(0 0 0)
(0 0 0)
(0 0 0)
(0 0 0)
(0 0 0)
(0 0 0)
(0 0 0)
(0 0 0)
(0 0 0)
(0 0 0)
(0 0 0)
(0 0 0)
(0 0 0)
(0 0 0)
(0 0 0)
(0 0 0)
(0 0 0)
(0 0 0)
(0 0 0)
(0 0 0)
(0 0 0)
(0 0 0)
(0 0 0)
(0 0 0)
(0 0 0)
(0 0 0)
(0 0 0)
(0 0 0)
(0 0 0)
(0 0 0)
(0 0 0)
(0 0 0)
(0 0 0)
(0 0 0)
(0 0 0)
(0 0 0)
(0 0 0)
(0 0 0)
(0 0 0)
(0 0 0)
(0 0 0)
(0 0 0)
(0 0 0)
(0 0 0)
(0 0 0)
(0 0 0)
(0 0 0)
(0 0 0)
(0 0 0)
(0 0 0)
(0 0 0)
(0 0 0)
(0 0 0)
(0 0 0)
(0 0 0)
(0 0 0)
(0 0 0)
(0 0 0)
(0 0 0)
(0 0 0)
(0 0 0)
(0 0 0)
(0 0 0)
(0 0 0)
(0 0 0)
(0 0 0)
(0 0 0)
(0 0 0)
(0 0 0)
(0 0 0)
(0 0 0)
(0 0 0)
(0 0 0)
(0 0 0)
(0 0 0)
(0 0 0)
(0 0 0)
(0 0 0)
(0 0 0)
(0 0 0)
(0 0 0)
(0 0 0)
(0 0 0)
(0 0 0)
(0 0 0)
(0 0 0)
(0 0 0)
(0 0 0)
(0 0 0)
(0 0 0)
(0 0 0)
(0 0 0)
(0 0 0)
(0 0 0)
(0 0 0)
(0 0 0)
(0 0 0)
(0 0 0)
(0 0 0)
(0 0 0)
(0 0 0)
(0 0 0)
(0 0 0)
(0 0 0)
(0 0 0)
(0 0 0)
(0 0 0)
(0 0 0)
(0 0 0)
(0 0 0)
(0 0 0)
(0 0 0)
(0 0 0)
(0 0 0)
(0 0 0)
(0 0 0)
(0 0 0)
(0 0 0)
(0 0 0)
(0 0 0)
(0 0 0)
(0 0 0)
(0 0 0)
(0 0 0)
(0 0 0)
(0 0 0)
(0 0 0)
(0 0 0)
(0 0 0)
(0 0 0)
(0 0 0)
(0 0 0)
(0 0 0)
(0 0 0)
(0 0 0)
(0 0 0)
(0 0 0)
(0 0 0)
(0 0 0)
(0 0 0)
(0 0 0)
(0 0 0)
(0 0 0)
(0 0 0)
(0 0 0)
(0 0 0)
(0 0 0)
(0 0 0)
(0 0 0)
(0 0 0)
(0 0 0)
(0 0 0)
(0 0 0)
(0 0 0)
(0 0 0)
(0 0 0)
(0 0 0)
(0 0 0)
(0 0 0)
(0 0 0)
(0 0 0)
(0 0 0)
(0 0 0)
(0 0 0)
(0 0 0)
(0 0 0)
(0 0 0)
(0 0 0)
(0 0 0)
(0 0 0)
(0 0 0)
(0 0 0)
(0 0 0)
(0 0 0)
(0 0 0)
(0 0 0)
(0 0 0)
(0 0 0)
(0 0 0)
(0 0 0)
(0 0 0)
(0 0 0)
(0 0 0)
(0 0 0)
(0 0 0)
(0 0 0)
(0 0 0)
(0 0 0)
(0 0 0)
(0 0 0)
(0 0 0)
(0 0 0)
(0 0 0)
(0 0 0)
(0 0 0)
(0 0 0)
(0 0 0)
(0 0 0)
(0 0 0)
(0 0 0)
(0 0 0)
(0 0 0)
(0 0 0)
(0 0 0)
(0 0 0)
(0 0 0)
(0 0 0)
(0 0 0)
(0 0 0)
(0 0 0)
(0 0 0)
(0 0 0)
(0 0 0)
(0 0 0)
(0 0 0)
(0 0 0)
(0 0 0)
(0 0 0)
(0 0 0)
(0 0 0)
(0 0 0)
(0 0 0)
(0 0 0)
(0 0 0)
(0 0 0)
(0 0 0)
(0 0 0)
(0 0 0)
(0 0 0)
(0 0 0)
(0 0 0)
(0 0 0)
(0 0 0)
(0 0 0)
(0 0 0)
(0 0 0)
(0 0 0)
(0 0 0)
(0 0 0)
(0 0 0)
(0 0 0)
(0 0 0)
(0 0 0)
(0 0 0)
(0 0 0)
(0 0 0)
(0 0 0)
(0 0 0)
(0 0 0)
(0 0 0)
(0 0 0)
(0 0 0)
(0 0 0)
(0 0 0)
(-0.0147526 -0.0643341 0)
(0.0733754 0.244772 0)
(0 0 0)
(0 0 0)
(0 0 0)
(0 0 0)
(0 0 0)
(0 0 0)
(0 0 0)
(0 0 0)
(0 0 0)
(0 0 0)
(0 0 0)
(0 0 0)
(0 0 0)
(0 0 0)
(0 0 0)
(0 0 0)
(0 0 0)
(0 0 0)
(0 0 0)
(0 0 0)
(0 0 0)
(0 0 0)
(0 0 0)
(0 0 0)
(0 0 0)
(0 0 0)
(0 0 0)
(0 0 0)
(0 0 0)
(0 0 0)
(0 0 0)
(0 0 0)
(0 0 0)
(0 0 0)
(0 0 0)
(0 0 0)
(0 0 0)
(0 0 0)
(0 0 0)
(0 0 0)
(0 0 0)
(0 0 0)
(0 0 0)
(0 0 0)
(0 0 0)
(0 0 0)
(0 0 0)
(0 0 0)
(0 0 0)
(0 0 0)
(0 0 0)
(0 0 0)
(0 0 0)
(0 0 0)
(0 0 0)
(0 0 0)
(0 0 0)
(0 0 0)
(0 0 0)
(0 0 0)
(0 0 0)
(0 0 0)
(0 0 0)
(0 0 0)
(0 0 0)
(0 0 0)
(0 0 0)
(0 0 0)
(0 0 0)
(0 0 0)
(0 0 0)
(0 0 0)
(0 0 0)
(0 0 0)
(0 0 0)
(0 0 0)
(0 0 0)
(0 0 0)
(0 0 0)
(0 0 0)
(0 0 0)
(0 0 0)
(0 0 0)
(0 0 0)
(0 0 0)
(0 0 0)
(0 0 0)
(0 0 0)
(0 0 0)
(0 0 0)
(0 0 0)
(0 0 0)
(0 0 0)
(0 0 0)
(0 0 0)
(0 0 0)
(0 0 0)
(0 0 0)
(0 0 0)
(0 0 0)
(0 0 0)
(0 0 0)
(0 0 0)
(0 0 0)
(0 0 0)
(0 0 0)
(0 0 0)
(0 0 0)
(0 0 0)
(0 0 0)
(0 0 0)
(0 0 0)
(0 0 0)
(0 0 0)
(0 0 0)
(0 0 0)
(0 0 0)
(0 0 0)
(0 0 0)
(0 0 0)
(0 0 0)
(0 0 0)
(0 0 0)
(0 0 0)
(0 0 0)
(0 0 0)
(0 0 0)
(0 0 0)
(0 0 0)
(0 0 0)
(0 0 0)
(0 0 0)
(0 0 0)
(0 0 0)
(0 0 0)
(0 0 0)
(0 0 0)
(0 0 0)
(0 0 0)
(0 0 0)
(0 0 0)
(0 0 0)
(0 0 0)
(0 0 0)
(0 0 0)
(0 0 0)
(0 0 0)
(0 0 0)
(0 0 0)
(0 0 0)
(0 0 0)
(0 0 0)
(0 0 0)
(0 0 0)
(0 0 0)
(0 0 0)
(0 0 0)
(0 0 0)
(0 0 0)
(0 0 0)
(0 0 0)
(0 0 0)
(0 0 0)
(0 0 0)
(0 0 0)
(0 0 0)
(0 0 0)
(-0 0 0)
(0.00334989 -0.000122663 0)
(0.00320972 0.00420721 0)
(-0.011235 0.0238214 0)
(-0.0276734 0.0632337 0)
(0.025001 0.0385967 0)
(-0.0531322 0.0509286 0)
(-0.0571711 0.103868 0)
(-0.0114097 0.096313 0)
(-0.00345004 0.0298208 0)
(-0.0312596 0.0336186 0)
(-0.0914257 0.0520751 0)
(-0.101691 0.0972619 0)
(-0.0352944 0.035367 0)
(-0.00775971 0.0155031 0)
(0.0420838 0.0183932 0)
(-0 -0 0)
(0 0 0)
(0 0 0)
(0 -0 0)
(0 -0 0)
(0 0 0)
(0 0 0)
(0 0 0)
(0 0 0)
(0 0 0)
(0 0 0)
(0 0 0)
(0 0 0)
(0 0 0)
(0 0 0)
(0 0 0)
(0 0 0)
(0 0 0)
(0 0 0)
(0 0 0)
(0 0 0)
(0 0 0)
(0 0 0)
(0 0 0)
(0 0 0)
(0 0 0)
(0 0 0)
(0 0 0)
(0 0 0)
(0 0 0)
(0 0 0)
(0 0 0)
(0 0 0)
(0 0 0)
(0 0 0)
(0 0 0)
(0 0 0)
(0 0 0)
(0 0 0)
(0 0 0)
(-0 0 0)
(0 0 0)
(-0.0949239 -0.122606 0)
(-0.0949172 -0.0617172 0)
(-0.111932 -0.000378259 0)
(-0.158985 0.0488743 0)
(-0.166131 0.0411154 0)
(-0.166613 0.0633116 0)
(-0.155144 0.104145 0)
(-0.0661718 0.120105 0)
(-0.110449 0.261009 0)
(-0.227773 -0.12886 0)
(-0.253547 -0.109745 0)
(-0.187379 0.0261459 0)
(-0.186634 0.0512804 0)
(-0.183736 0.0494869 0)
(-0.136001 0.104498 0)
(-0.16758 0.0393455 0)
(-0.0930056 0.0253919 0)
(-0.0850188 0.0357781 0)
(-0.0368979 0.0501341 0)
(-0.0518029 0.0303448 0)
(-0.11382 0.0725951 0)
(-0.117644 0.0673594 0)
(-0.135832 0.0406733 0)
(-0.211437 0.00387774 0)
(-0.188921 0.0453474 0)
(-0.177665 0.0323544 0)
(-0.196206 0.0736778 0)
(-0.177048 0.0851844 0)
(-0.177434 0.0930723 0)
(-0.171136 0.0747836 0)
(-0.168091 0.0906323 0)
(-0.139931 0.110215 0)
(-0.166412 0.152204 0)
(-0.112599 0.0678155 0)
(-0.0914635 0.0982512 0)
(0.0117464 0.0126442 0)
(-0.0137083 0.0252848 0)
(0.00469355 0.0187844 0)
(0.000238012 -0.00197589 0)
(-0.00277647 -0.0128147 0)
(-0 0 0)
(-0.00443821 -0.0009164 0)
(-0.00410582 0.00852943 0)
(-0.00763998 -0.0172214 0)
(-0.0112458 -0.00646092 0)
(-0.0560215 0.0187441 0)
(-0.124127 0.0156433 0)
(-0.124107 0.0553711 0)
(-0.13685 -0.00247544 0)
(-0.140136 0.0101526 0)
(-0.118929 0.0266246 0)
(-0.133165 0.0395095 0)
(-0.13675 0.0551783 0)
(-0.188691 0.0949047 0)
(-0.190218 0.0898163 0)
(-0.21309 0.0719915 0)
(-0.21809 0.0471039 0)
(-0.192274 0.0759025 0)
(-0.104509 0.0494652 0)
(-0.0704211 0.0575612 0)
(-0.121879 0.00684446 0)
(-0.191423 0.0915658 0)
(-0.159963 0.0162542 0)
(-0.177543 0.0521947 0)
(-0.188303 0.0336914 0)
(-0.173547 -0.0309485 0)
(-0.158496 -0.0298516 0)
(-0.183239 0.0315019 0)
(-0.167566 -0.0254248 0)
(-0.180453 -0.00778694 0)
(-0.227512 -0.0243355 0)
(-0.219358 0.0114783 0)
(-0.210543 -0.00716363 0)
(-0.208644 -0.0614132 0)
(-0.183144 -0.0351781 0)
(-0.168601 0.016136 0)
(-0.157441 0.0296132 0)
(-0.154463 0.0348219 0)
(-0.161297 0.0474875 0)
(-0.17249 0.0371668 0)
(-0.15287 0.0400389 0)
(-0.148856 0.0198182 0)
(-0.150588 0.0164718 0)
(-0.138872 0.0303188 0)
(-0.147378 0.0314079 0)
(-0.15564 0.0320479 0)
(-0.126894 0.0347658 0)
(-0.127167 0.0595432 0)
(-0.128996 0.0541761 0)
(-0.130436 0.0458244 0)
(-0.154776 0.059475 0)
(-0.097518 0.0028446 0)
(-0.0494937 0.00085044 0)
(0.0459921 -0.0538122 0)
(-0.156485 -0.369684 0)
(-0.18741 0.0977411 0)
(-0.0490541 -0.0255521 0)
(-0.0687482 -0.000190086 0)
(-0.10961 0.0200875 0)
(-0.0580926 0.0126772 0)
(-0.108637 0.0272457 0)
(-0.0378768 0.00752657 0)
(-0.0870656 0.0353121 0)
(-0.0769315 0.0276713 0)
(-0.028201 0.005397 0)
(-0.0200879 -0.0117907 0)
(0.0721169 0.046301 0)
(0.00475321 -0.0549097 0)
(-0.00524602 -0.0104899 0)
(-0.0040657 0.00320881 0)
(0.000631755 0.000955691 0)
(-0.047881 0.0229052 0)
(-0.150841 0.000827993 0)
(-0.161061 -0.021679 0)
(-0.00416853 0.000430821 0)
(-0.00108412 0.000116 0)
(0 0 0)
(0 0 0)
(0 0 0)
(0 0 0)
(0 0 0)
(0 0 0)
(0 0 0)
(-0.0035976 -0.028429 0)
(-0.128092 -0.0157204 0)
(-0.003447 -0.0209225 0)
(0 0 0)
(0 0 0)
(0 0 0)
(0 0 0)
(0 0 0)
(0 0 0)
(0 0 0)
(0 0 0)
(0 0 0)
(0 0 0)
(0 0 0)
(0 0 0)
(0 0 0)
(0 0 0)
(0 0 0)
(0 0 0)
(0 -0 0)
(-0 0 0)
(-0.00100371 -0.00349661 0)
(-0.00738173 -0.0437128 0)
(-0.00978194 0.0366797 0)
(-0.128373 -0.0404421 0)
(-0.189291 0.0564059 0)
(-0.210377 0.0987331 0)
(-0.172708 0.115133 0)
(-0.18449 0.132818 0)
(-0.156741 0.138946 0)
(-0.148342 0.115274 0)
(-0.134711 0.0631183 0)
(-0.0852968 0.0484379 0)
(-0.0103711 -0.00853229 0)
(0 0 0)
(0 0 0)
(0 0 0)
(-0.058009 -0.0565765 0)
(0.221569 -0.0631182 0)
(-0.175697 0.0334324 0)
(-0.000587516 -0.0115133 0)
(0 0 0)
(0 0 0)
(0 0 0)
(0 0 0)
(0 0 0)
(0 0 0)
(0 0 0)
(0 0 0)
(0 0 0)
(0 0 0)
(0 0 0)
(0 0 0)
(0 0 0)
(0 0 0)
(0 0 0)
(0 0 0)
(0 0 0)
(0 0 0)
(0 0 0)
(0 0 0)
(0 0 0)
(0 0 0)
(0 0 0)
(0 0 0)
(0 0 0)
(0 0 0)
(0 0 0)
(0 0 0)
(0 0 0)
(0 0 0)
(0 0 0)
(0 0 0)
(0 0 0)
(0 0 0)
(0 0 0)
(0 0 0)
(0 0 0)
(0 0 0)
(0 0 0)
(0 0 0)
(0 0 0)
(0 0 0)
(0 0 0)
(0 0 0)
(0 0 0)
(0 0 0)
(0 0 0)
(0 0 0)
(0 0 0)
(0 0 0)
(0 0 0)
(0 0 0)
(0 0 0)
(0 0 0)
(0 0 0)
(0 0 0)
(0 0 0)
(0 0 0)
(0 0 0)
(0 0 0)
(0 0 0)
(0 0 0)
(0 0 0)
(0 0 0)
(0 0 0)
(0 0 0)
(0 0 0)
(0 0 0)
(0 0 0)
(0 0 0)
(0 0 0)
(0 0 0)
(0 0 0)
(0 0 0)
(0 0 0)
(0 0 0)
(0 0 0)
(0 0 0)
(0 0 0)
(0 0 0)
(0 0 0)
(0 0 0)
(0 0 0)
(0 0 0)
(0 0 0)
(0 0 0)
(0 0 0)
(0 0 0)
(0 0 0)
(0 0 0)
(0 0 0)
(0 0 0)
(0 0 0)
(0 0 0)
(0 0 0)
(0 0 0)
(0 0 0)
(0 0 0)
(0 0 0)
(0 0 0)
(0 0 0)
(0 0 0)
(0 0 0)
(0 0 0)
(0 0 0)
(0 0 0)
(0 0 0)
(0 0 0)
(0 0 0)