/*--------------------------------*- C++ -*----------------------------------*\
| =========                 |                                                 |
| \\      /  F ield         | OpenFOAM: The Open Source CFD Toolbox           |
|  \\    /   O peration     | Version:  1.6.x                                 |
|   \\  /    A nd           | Web:      www.OpenFOAM.org                      |
|    \\/     M anipulation  |                                                 |
\*---------------------------------------------------------------------------*/
FoamFile
{
    version     2.0;
    format      ascii;
    class       volScalarField;
    location    "5399.9";
    object      H;
}
// * * * * * * * * * * * * * * * * * * * * * * * * * * * * * * * * * * * * * //

dimensions      [0 1 0 0 0 0 0];

internalField   nonuniform List<scalar> 
25153
(
0
0
0
0
0
0
0
0
0
0
0
0
0
0
0
0
0
0
0
0
0
0
0
0
0
0
0
0
0
0
0
0
0
0
0
0
0
0
0
0
0
0
0
0
0
0
0
0
0
0
0
0
0
0
0
0
0
0
0
0
0
0
0
0
0
0
0
0
0
0
0
0
0
0
0
0
0
0
0
0
0
0
0
0
0
0
0
0
0
0
0
0
0
0
0
0
0
0
0
0
0
0
0
0
0
0
0
0
0
0
0
0
0
0
0
0
0
0
0
0
0
0
0
0
0
0
0
0
0
0
0
0
0
0
0
0
0
0
0
0
0
0
0
0
0
0
0
0
0
0
0
0
0
0
0
0
0
0
0
0
0
0
0
0
0
0.00199586
0.0121194
0.0172667
0
5.81308e-265
0.000347868
0
0
0
0
0
0
0
0
0
0.0315793
0.0431135
0.113668
0.0393641
0.00309937
0.00100807
0
1.28457e-322
2.96439e-323
0
0
6.42285e-323
3.91472e-05
0
0
0
0
0
0
0
0
0
0
0
0
0
0
0
0
0
0
0
0
0
0
0
0
0
0
0
0
0
0
0
0
0
0
0
0
0
0
0
0
0
0
0
0
0
0
0
0
0
0
0
0
0
0
0
0
0
0
0
0
0
0
0
0
0
0
0
0
0
0
0
0
0
0
0
0
0
0
0
0
0
0
0
0
0
0
0
0
0
0
0
0
0
0
0
0
0
0
0
0
0
0
0
0
0
0
0
0
0
0
0
0
0
0
0
0
0
0
0
0
0
0
0
0
0
0
0
0
0
0
0
0
0
0
0
0
0
0
0
0
0
0
0
0
0
0
0
0
0
0
0
0
0
0
0
0
0
0
0
0
0
0
0
0
0
0
0
0
0
0
0
0
0
0
0
0
0
0
0
0
0
0
0
0
0
0
0
0
0
0
0
0
0
0
0
0
0
0
0
0
0
0
0
0
0
0
0
0
0
0
0
0
0
0
0
0
0
0
0
0
0
0
0
0
0
0
0
0
0
0
0
0
0
0
0
0
0
0
0
0
0
0
0
0
0
0
0
0.000977599
0.0119862
0.0400977
0.0732184
0.13086
0.0965252
0.0948104
0.0868577
0.0518597
0.0198106
0.0146119
0.0730669
0.0878027
0.0889794
0.0882209
0.146978
0.183256
0.2024
0.173757
0.223097
0.256654
0.223985
0.26065
0.259879
0.252072
0.198222
0.176324
0.175256
0.155424
0.0751478
0.256796
0.239559
0.244272
0.232801
0.228244
0.24738
0.215569
0.141183
0.24413
0.187755
0.20241
0.273943
0.279643
0.281125
0.240629
0.197781
0.124226
0.122047
0.168793
0.163847
0.0979089
0.0522887
0.0101274
0.0166465
0.0397531
0.0668014
0.0716282
0.141895
0.147161
0.240043
0.204382
0.252097
0.24766
0.230492
0.24249
0.180622
0.104322
0.0734159
0.134318
0.0949617
0.0337879
0.121957
0.126616
0.0300574
0.104172
0.17796
0.0742622
0.163196
0.196741
0.193875
0.2611
0.26475
0.226366
0.16417
0
0
0
0
0
0
0
0
0
0
0
0
0
0
1.85708e-05
0
0
0
0
0
0
0
0
0
0
0.0946109
0.0793851
0.197204
0.181764
0.110261
0.144199
0.162686
0.157328
0.147636
0.141461
0.0747424
0.0178022
0.00994833
0.00109654
3.55986e-63
0
0
0
0
0
0
0
0
0.0268163
0.0560448
0.114448
0.120325
0.125116
0.100426
0.116941
0.0499071
0.0677611
0.116161
0.132753
0.123292
0.11925
0.0895395
0.130956
0.118425
0.174095
0.159324
0.138952
0.0792061
0.176818
0.263719
0.265756
0.234185
0.180525
0.185261
0.135085
0.151989
0.137418
0.0918918
0.115451
0.125033
0.0722491
0.0808654
0.0640675
0.092124
0.165036
0.162917
0.145464
0.101008
0.0911405
0.0305719
0.00832063
0.00474987
0
0
0
0
0
0
0
0
0
0
0
0
0
0.0248522
0.0387992
0.0240752
0.0109203
0.00341441
0
0
0
0.00110233
0.00538312
0.0239974
0.00192952
0.000688188
0.0395878
0.0604554
0.0903347
0.0698789
0.0780818
0.100397
0.108549
0.145048
0.153524
0.178051
0.0568079
0
0
0
0
0
0
0
0
0
0
0
0
0
0
0
0
0.0574282
0.0957868
0.130906
0.157981
0.187867
0.150113
0.0998174
0.0247284
0.0195031
0.030516
0.0370102
0.00100926
0.0386266
0.121623
0.113858
0.212233
0.271339
0.291031
0.218369
0.209734
0.212566
0.231468
0.204114
0.164601
0.117394
0.132155
0.147887
0.106156
0.0515665
0.0309375
0.0317792
0.0466819
0.104629
0.0849083
0.091058
0
0
0
0.0341355
0.0541989
0
0
0
0
0
0
0
0
0
0
0
0
0
0
0
0
0
0
0
0
0
0
0
0
0
0
0
0
0
0
0
0
0
0
0
0
0
0
0
0
0
0
0
0
0
0
0
0
0
0
0
1.4822e-323
0
0
0
0
0
0
0
0
0
0
0
0
0
0
0
0
0
0
0
0
0
0
0
0
0
0
0
0
0
0
0
0
0
0
0
0
0
0
0
0
0
0
0
0
0
0
0
0
0
0
0
0
0
0
0
0
0
0
0
0
0
0
0
0
0
0
0
0
0
0
0
0
0
0
0
0
0
0
0
0
0
0
0
0
0
0
0
0
0
0
0
0
0
0
0
0
0
0
0
0
0
0
0
0
0
0
0
0
0
0
0
0
0
0
0
0
0
0
0
0
0
0
0
0
0
0
0
0
0
0
0
0
0
0
0
0
0
0
0
0
0
0
0
0
0
0
0
0
0
0
0
0
0
0
0
0
0
0
0
0
0
0
0
0
0
0
0
0
0
0
0
0
0
0
0
0
0
0
0
0
0
0
0
0
0
0
0
0
0
0
0
0
0
0
0
0
0
0
0
0
0
0
0
0
0
0
0
0
0
0
0
0
0
0
0
0
0
0
0
0
0
0
0
0
0
0
0
0
0
0
0
0
0
0
0
0
0
0
0
0
0
0
0
0
0
0
0
0
0
0
0
0
0
0
0
0
0
0
0
0
0
0.0987201
0.167628
0.115369
0.00581153
0.00498863
0.00164538
0.00748668
0.00370169
0.00546164
0.0091865
0.0125909
0.0158752
0.0169736
0.0122268
0.00528737
0.000934136
0.0217722
0.0278724
0.0248473
0.0214591
0.0143559
0.0395972
0.0412476
0.0829244
0.131714
0.136707
0.146696
0.155373
0.0910225
0.0850438
0.0608805
0.0402167
0.0317545
0.0354315
0.0352616
0.0344308
0.109368
0.125236
0.137291
0.163468
0.149222
0.108585
0.101988
0.140856
0.153287
0.163489
0.168075
0.140765
0.15251
0.14168
0.0721992
0.0359321
0.0151786
0.0200223
0.0204518
0.0124612
0.0138378
0.0119931
0.0147683
0.0363661
0.133143
0.266357
0.23246
0.160491
0.096244
1.4822e-323
1.4822e-323
0.106636
0.000577243
0.000933543
0.00100645
1.31944e-303
1.47009e-05
1.4822e-323
0.000969642
0
0
0
0
0
0
0
0
0
0
0
0
0
0
0
0
0
0
0
0
0
0
0
0
0
0
0
0
0
0
0
0
0
0
0
0
0
0
0
0
0
0
0
0
0
0
0
0
0
0
0
0
0.00037541
0.0333336
0.0202387
0.0764717
0.0368058
0
8.45048e-226
0
0
0
0
0
0
0
0.0118648
0.00281732
1.2761e-62
1.97626e-323
0.0354531
0.065205
0.00814302
0.053357
0.154409
0.141663
0.123032
0.125699
0.0909318
0.0985582
0.101883
0.126597
0.118828
0.111924
0.195697
0.19225
0.147466
0.0774703
0.0674071
0.0752054
0.0766183
0.0718507
0.0852114
0.0678576
0.00696754
0.00208209
0.0516276
0.105231
0.117545
0.123859
0.106281
0.0863007
0.122059
0.148397
0.223219
0.202218
0.250353
0.213404
0.0859049
0.0659032
0.000204143
0
0
0.0619535
0.124403
0.0958575
0.179057
0.217708
0.178156
0.20602
0.175144
0.211387
0.212508
0.17789
0.0957951
0.0852818
0.0132072
8.39912e-323
0
0
0
0
0
0
0
0
0
0
0
0
0
0
0
0
0
0
0
0
0
0
0
0
0
0
0
0
0
0
0
0
0
0
0
0
0
0
0
0
0
0
0
0
0
0
0
0
0
0
0
0
0
0
0
0
0
0
0
0
0
0
0
0
0
0
0
0
0
0
0
0
0
0
0
0
0
0
0
0
0
0
0
0
0
0
0
0.152377
0.197157
0.153581
0.170242
0.0936142
0.0851885
0.225006
0.217569
0.235936
0.250774
0.252162
0.253209
0.203499
0.101958
0.132432
0.272069
0.190667
0.270974
0.204429
3.03658e-296
0
1.05217e-152
0
0
0
0
0.00100811
0
0
0
0
0
0
0
0
0
0
0
0
0
0
0
0
0
0
0
0
0
0
0
0
0
0
0
0
0
0
0
0
0.000883659
3.45846e-323
0.108677
0.189855
0.13249
0.160146
0.186363
0.194657
0.195292
0.193557
0.216419
0.148767
0.134132
0.0894574
0.223606
0.227602
0.286247
0.263342
0.25125
0.256714
0.242952
0.268016
0.258629
0.250976
0.200617
0.160431
0.171187
0.196677
0.0979094
0.0863032
0.00797374
0.219902
0.19636
0.211392
0.198442
0.259966
0.251772
0.22032
0.160732
0.172932
0.228035
0.181854
0.209069
0.198172
0.193401
0.228705
0.225507
0.23239
0.209046
0.234475
0.228604
0.245628
0.201366
0.170414
0.114493
0.0309712
0.00149358
0.00160771
0
0
0.000256887
0
0
0
0
0
0
0
0
0
0
0
0.207085
0.217354
0.198184
0.218334
0.230645
0.214869
0.20357
0.197186
0.24691
0.202639
0.238961
0.26247
0.267274
0.206017
0.213623
0.139428
0.235927
0.124736
0.0694492
0.0415447
0
0
0
0
0
0
0
0
0
0
0
0
0
0
0
0
0
0
0
0
0
0
0
0
0
0
0
0
0
0
0
4.94066e-323
0
0
0
0.0448856
0
0
0
0
0
0
0
0
0
0
0
0
0
0
0
0
0
0
0
0
0
0
0
0
0
2.47033e-323
0
0.0917294
0.150784
0.155428
0.129892
0.114347
0.125676
0.139349
0.125534
0.115347
0.20042
0.20844
0.192703
0.192149
0.178406
0.18169
0.169233
0.162101
0.170066
0.166395
0.15447
0.194277
0.123094
0.126004
0.135167
0.140037
0.146367
0.145005
0.152472
0.146973
0.157135
0.195867
0.176205
0.153821
0.125971
0.10515
0.0264771
0.00870659
0
0
0
0
0
0
0
0
0
0
0
0
0
0
0
0
0
0
0
0
0
0
0
0
0
0
0
0
0
0
0
0
0
0
0
0
0
0
0
0
0
0
0
0
0
0
0
0
0
0
0
0
0
0
0
0
0
0
0
0
0
0
0
0
0
0
0
0
0
0
0
0
0
0
0
0
0
0
0
0
0
0
0
0
0
0
0
0
0
0
0
0
0
0
0
0
0
0
0
0
0
0
0
0
0
0
0
0
0
0
0
0
0
0
0
0
0
0
0
0
0
0
0
0
0
0
0
0
0
0
0
0
0
0
0
0
0
0
0
0
0
0
0
0
0
0
0
0
0
0
0
0
0
0
0
0
0
0
0
0
0
0
0
0
0
0
0
0
0
0
0
0
0
0
0
0
0
0
0
0
0
0
0
0
0
0
0
0
0
0
0
0
0
0
0
0
0
0
0
0
0
0
0
0
0
0
0
0
0
0
0
0
0
0
0
0
0
0
0
0
0
0
0
0
0
0
0
0
0
0
0
0
0
0
0
0
0
0
0
0
0
0
0
0
0
0
0
0
0
0
0
0
0
0
0
0
0
0
0
0
0
0
0
0
0
0
0
0
0
0
0
0
0
0
0
0
0
0
0
0
0
0
0
0
0
0.0839276
0.165539
0
0
0
0
0
0
0
0
0
0
0
0
0
0
0
0
0
0
0
0
0
0
0
0
0
0
0
0
0
0
0
0
0
0
0
0
0
0
0
0
0
0
0
0
0
0
0
0
0
0
0
0
0
0
0
0
0
0
0
0
0
0
0
0
0
0
0
0
0
0
0
0
0
0
0
0
0
0
0
0
0
0
0
0
0
0
0
0
0
0
0
0
0
0
0
0
0
0
0
0
0
0
0
0
0
0
0
0
0
0
0
0
0
0
0
0
0
0
0
0
0
0
0
0
0
0
0
0
0
0
0
0
0
0
0
0
0
0
0
0
0
0
0
0
0
0
0
0
0
0
0
0
0
0
0
0
0
0
0
0
0
0
0
0
0
0
0
0
0.00912875
0.0191571
0.0399271
0.11758
0.198565
0.161501
0.0767839
0.090364
0.0675738
0.0931814
0.0944516
0.0434714
0.0141343
0.0238053
0.0520181
0
0
0
0
0
0
0
0
0
0
0
0
0
0
0
0
0
0
0
0
0
0
0
0
0
0
0
0
0
0
0
0
0
0
0
0
0
0
0
0
0
7.41098e-323
0.304464
0.230874
0.222655
0.178943
0.175997
0.180601
0.182056
0.15067
0.16953
0.128387
0.230005
0.199375
0.2071
0.213726
0.209234
0.191571
0.168858
0.0952698
0.0748683
0.0848642
0.118711
0.154815
0.169181
0.240635
0.207041
0.179113
0.177681
0.149549
0.148944
0.151523
0.177363
0.21284
0.239918
0.171493
0.144541
0.0593195
0.0411385
0.0524119
0.0288112
0.0294821
2.47033e-323
0.011123
0.0253431
0.0385003
0.0311185
0.116294
0.139069
0.168625
0.150812
0.139932
0.120146
0.123754
0.108993
0.173476
0.187664
0.211578
0.213582
0.209129
0.142624
0.219302
0.202372
0.193222
0.209859
0.200434
0.221183
0.213751
0.202935
0.194772
0.148054
0.155765
0.194426
0.197745
0.177045
0.180309
0.174431
0.134379
0.131321
0.138815
0.155274
0.167509
0.140253
0.158392
0.168119
0.144987
0.146728
0.153062
0.144028
0.146159
0.146313
0.168984
0.170449
0.175892
0.221622
0.0544911
0.131342
0.162911
0.0710502
0.0935148
0.126957
0.103916
0.139562
0.0755281
0.119372
0.119654
0.0536143
0.131151
0.0908282
0.0359407
0.0193927
0.0170028
0.00573234
0.0555628
0.12221
0.144532
0.0104382
0.00615403
0
0
0
0
0
0
0
0.0322972
0.112069
0.0180304
0
0
0
0
0
0
0
0
0
0
0
0
0
0
0
0
2.47033e-323
6.74401e-314
0.0132539
0.0386505
0.0382166
0.193882
0.212871
0.203192
0.200911
0.184196
0.173091
0.180279
0.187315
0.160917
0.0682245
0
0
0
0.0657576
0.107084
0.193468
0.0195991
0
0
0
0
0
0
0
0
0
0
0
0
0
0
0
0
0
0
0
0
0
0
0
0
0
0
0
0
0
0
0
0
0
0
0
0
0
0
0
0
0
0
0
0
0
0
0
0
0
0
0
0
0
0
0
0
0
0
0
0
0
0
0
0
0
0
0
0
0
0
0
0
0
0
0
0
0
0
0
0
0
0
0
0
0
0
0
0
0
0
0
0
0
0
0
0
0
0
0
0
0
0
0
0
0
0
0
0
0
0
0
0
0
0
0
0
0
0
0
0
0
0
0
0
0
0
0
0
0
0
0
0
0
0
0
0
0
0
0
0
0
0
0
0
0
0
0
0
0
0
0
0
0
0
0.00803369
0.100342
0.221183
0.12952
0.100024
0.0779143
0.00442038
0.0491518
0
5.58171e-24
5.92879e-323
1.65071e-161
0.0523116
0.080116
0.0648636
0.0194254
0
0
0.0500176
0.0817426
0.0180748
0.0933008
0.0902044
0
0
0.105247
0.100659
0.0983694
0.0702406
0.0265287
0.0541128
0.0311003
0
0.0180812
0.0261704
0.0188293
0.0111134
0.0489008
0.0505184
0.0384198
0.0690534
0.0768836
0.0277417
0.0391061
0.0521339
0.0717731
0.0412834
0.0444302
0.0860597
0.051899
0.0668748
0.0311494
0.113612
0.124609
0.189574
0.0961986
0.201737
0.224697
0.107382
0.151442
0.114458
0.102896
0.0769618
0.0833176
0.137201
0.131423
0.198623
0.164938
0.185689
0.137571
0.173019
0.169031
0.177033
0.14817
0.158854
0.149149
0.14329
0.182604
0.154572
0.164129
0.0874516
0.181475
0.163799
0.174209
0.149145
0.15097
0.206495
0.163979
0.173138
0.0776563
0.0312025
0
0
0.000342808
0
0
0
0
0
0
0
0
0
0
0
0
0
0
0
0
0.000100514
0.00020251
0.0561664
0.011786
0.00192919
0.00100697
0
0
0
0
0
0
0
0
0
0
0
0
0
0
0
0
0
0
0
0
0
0
0
0
0
0
0
0
0
0
0
0
0
0.118376
0.115326
0.173894
0.135437
0.110527
0.0686519
0.0764804
0.0330901
0.00473508
0.00498107
0
0
0
0
0
0
0
0
0
0
0
0
0
0
0
0
0
0
0
0
0
0
0
0
0
0
0
0
0
0
0
0
0
0
0
0
0
0
0
0
0
0
0
0
0
0
0
0
0
0
0
0
0
0
0
0
0
0
0
0
0
0
0
0
0
0
0
0
0
0
0
0
0
0
0
0
0
0
0
0
0
0
0
0
0
0
0
0
0
0
0
0
0
0
0
0
0
0
0
0
0
0
0
0
0
0
0
0
0
0
0
0
0
0
0
0
0
0
0
0
0
0
0
0
0
0
0
0
0
0
0
0
0
0
0
0
0
0
0
0
0
0
0
0
0
0
0
0
0
0
0
0
0
0
0
0
0
0
0
0
2.99614e-46
0.00393181
0.0024953
0.00445278
6.42019e-05
0.196266
0.194057
0.0421759
0.0287547
0
1.12501e-06
0.000996051
0
0
0
0
0
0
0
0
0
0
0
0
0
0
0
0
0
0
0
0
0
0
0
0
0
0
0
0
0
0
0
0
0
0
0
0
0
0
0
0
0
0
0
0
0
0
0
0
0
0
0
0
0
0
0
0
0
0
0
0
0
0
0
0
0
0
0
0
0
0
0
0
0
0
0
0
0
0
0
0
0
0
0
0
0
0
0
0
0
0
0
0
0
0
0
0
0
0
0
0
0
0
0
0
0
0
0
0
0
0
0
0
0
0
0
2.07127e-135
1.19743e-134
0.0191338
0.0453276
0.08996
0.0881421
0
0.0246553
0
0
0
0
0
0
0
0
0
0
4.29208e-166
0.0007271
0
0
0
0
0.00652615
0.0122713
0.0154707
0.0112036
0.00578951
0.0443814
0.0381668
0.0366014
0.0247263
0.0585786
0.0653266
0.114129
0.137099
0.149949
0.105883
0.104691
0.144176
0.169742
0.146882
0.125214
0.106728
0.14797
0.16032
0.140093
0.154527
0.190824
0.194422
0.196818
0.208454
0.200748
0.139064
0.205493
0.196003
0.158295
0.142141
0.129608
0.127347
0.113383
0.135232
0.135572
0.124366
0.14129
0.149117
0.153553
0.140623
0.120427
0.119579
0.130298
0.113737
0.171126
0.0993942
0.166165
0.206461
0.120587
0.228706
0.129054
0.0800068
0.0479522
0.0505773
0.027435
0.0185471
0.135387
0.115682
0.134975
0.195723
0.230463
0.221916
0.235211
0.23081
0.238004
0.256261
0.296941
0.276629
0.260575
0.199799
0.179475
0.178865
0.181348
0.210533
0.231807
0.238971
0.243451
0.263414
0.266687
0.259399
0.216193
0.207304
0.201102
0.22643
0.212374
0.160453
0.163236
0.158618
0.115434
0.0737276
0.0392595
0.0739933
0.0549168
0.0948962
0.0808363
0.151794
0.163695
0.17644
0.185236
0.162329
0.158371
0.175165
0.196829
0.0466099
0.134972
0
0
0
0
0
0
0
0
0
0
0
0
0
0
0
0
0
0
0
0
0
0
0
0
0
0
0
0
0
0
0
0
0
0
0
0
0
0
0
0
0
0
0
0
0
0
0
0
0
0
0
0
0
0
0
0
0
0
0
0
0
0
0
0
0
0
0
0
0
0
0
0
0
0
0
0
0
0
0
0
0
0
0
0
0
0
0
0
0
0
0
0
0
0
0
0
0
0
0
0
0
0
0
0
0
0
0
0
0
0
0
0
0
0
0
0
0
0
0
0
0
0
0
0
0.0710201
1.26797e-15
0
0.0779463
0.0422071
0.0434095
0.0642848
0.0608471
0.0439334
0.0382736
0.038689
0.0279281
0.0935241
0.0933746
0.0812287
0.229741
0.174437
0.144408
0.156238
0.109606
0.147782
0.155519
0.195399
0.233864
0.191119
0.19515
0.231023
0.210457
0.163343
0.118684
0.138958
0.118958
0.112488
0.0726361
0.16567
0.222782
0.120549
0.138838
0.0614326
0.147141
0.085982
0.118789
0.1077
0.075274
0.00946733
0.146472
0.0840103
0.0894676
0.0440426
0.16514
0.184724
0.124995
0.0845324
0.031844
0.014432
0.0189266
0.0535525
0.0475897
0.0801039
0.0311361
0.012569
0.0811624
0.0522407
0.0486735
0.0577697
0.0420046
0.0118616
0
0
0
0
0
1.4822e-323
0
0
0
0
0
0
0
0
0
0
0
0
0
0
0
0
0
0
0
0
0
0
0
0
0
0
0
0
0
0
0
0
0
0
0
0
0
0
0
0
0
0
0
0
0
0
0
0
0
0
0
0
0
0
0
0
0
0
0
0
0
0
0
0
0
0
0
0
0
0
0
5.76377e-05
0.00100134
9.88131e-324
0.0525938
0.0107427
0
0
0
0
0
0
0
0
0
0
0
0
0
0
0
0
0
0.0162101
0.0252786
0.188049
0.0516462
0.230039
0.0701061
0.304432
0.250352
0.239826
0.23547
0.222134
0.199285
0.178254
0.182848
0.160934
0.156814
0.16688
0.160011
0.126873
0.134689
0.127357
0.154757
0.187703
0.2045
0.2108
0.18933
0.267055
0.161766
0.123185
0.0504078
0.00478456
0
0
0
0
0
0.0190742
0.0299756
0.0897111
0.145782
0.121379
0.10913
0.0871491
0.053924
0.0751814
0.04197
0.0707782
0.0632645
0.0456179
0.0466475
0.00198067
0
0
0
0
0
0
0
0
0
0
0
0
0
0
0
0
0
0.00787881
0.0089523
0.00323358
0.0268716
0.00446263
0.00205736
0.000643396
0.0271711
0.0191051
0.0685155
0.0831168
0.152943
0.147521
0.141284
0.0809727
0.100724
0.13811
0.14058
0.128549
0.12089
0.132799
0.168658
0.16645
0.148967
0.172746
0.152404
0.130666
0.144801
0.163396
0.248015
0.1896
0.00135493
0.00018658
0
0
0
0
0
0
0
0
0
0
0
0
0
0
0
0
0
0
0
0
0
0
0
0
0
0
0
0
0
0
0
0
0
0
0
0
0
0
0
0
0
0
0
0
0
0
0
0
0
0
0
0
0
0
0
0
0
0
0
0
0
0
0
0
0
0
0
0
0
0
0
0
0
0
0
0
0
0
0
0
0
0
0
0
0
0
0
0
0
0
0
0
0
0
0
0
0
0
0
0
0
0
0
0
0
0
0
0
0
0
0
0
0
0
0
0
0
0
0
0
0
0
0
0
0
0
0
0
0
0
0
0
0
0
0
0
0
0
0
0
0
0
0
0
0
0
0
0
0
0
0
0
0
0
0
0
0
0
0
0
0
0
0
0
0
0
0
0
0
0
0
0
0
0
0
0
0
0
0
0
0
0
0
0
0
0
0
0
0
0
0
0
0
0
0
0
0
0
0
0
0
0
0
0
0
0
0
0
0
0
0
0
0
0
0
0
0
0
0
0
0
0
0
0
0
0
0
0
0
0
0
0
0
0
0
0
0
0
0
0
0
0
0
0
0
0
0
0
0
0
0
0
0
0
0
0
0
0
0
0
0
0
0
0
0
0
0
0
0
0
0
0.0322968
0.0143592
0.0173911
0.00907037
0.00577185
0.0025926
0.0317313
0.0719011
0.0833411
0.103688
0.109319
0.122902
0.112852
0.130675
0.149932
0.193741
0.195294
0.166951
0.154688
0.11204
0.110202
0.016032
0.00462153
0.0165744
0.00560331
0
0
0
0
0
0
0
0
0
0
0
0
0
0
0
0
0
0
0
0
0
0
0
0
0
0
0
0
0
0
0
0
0
0
0
0
0
0
0
0
0
0
0
0
0
0
0
0
0
0
0
0
0
0
0
0
0
0
0
0
0
0
0
0
0
0
0
0
0
0
0
0
0
0
0
0
0
0
0
0
0
0
0
0
0
0
0
0
0
0
0
0
0
0
0
0
0
0
0
0
0
0
0
0
0
0
0
0
0
0
0
0
0
0
0
0
0
0
0
0
0
0
0
0
0
0
0
0
0
0
0
0
0
0
0
0
0
0
0
0
0
0
0
0
0
0
0
0
0
0
0
0
0
0
0
0
0
0
0
0.0467301
0.137304
0.203778
0.165907
0.215641
0.268413
0.223762
0.241643
0.257496
0.238344
0.263065
0.278055
0.277054
0.280113
0.297589
0.198404
0.20651
0.222762
0.0534071
0.00230967
0.00427472
0
0
0
0
0
0
0
0
0
0
0
0
0
0
0
0
0
0
0
0
2.94797e-05
0.000950514
0.000799655
0.0328197
0.135587
0.00883761
0.253859
0.273731
0.230231
0.298544
0.291654
0.401802
0.343535
0.206263
0.355523
0.358765
0.333627
0.250695
0.282338
0.290028
0.363981
0.343849
0.35168
0.325636
0.262011
0.297026
0.350989
0.349054
0.332751
0.364211
0.229602
0.228275
0.19169
0.155681
0.0978012
2.47033e-323
0
0
0
0
0.000203339
0.00618848
0.00557054
0.0027633
8.68901e-48
0
0
0
0
0
0
0
0
0
0
0
0
0
0
0
0
0
0
0
0
0
0
0
0
0
0
0
0
0
0
0
0
0
0
0
0
0
0
0
0
0
0
0
0
0
0
0
0
0
0
0
0
0
0
0
0
0
0
0
0
0
0
0
0
0
0
0
0
0
0
0
0
0
0
0
0
0
0
0
0
0.00101601
0.0119433
0.0586165
0.0438157
0.0270557
0.0184045
0.0121529
0.0082333
0.00411714
0.040503
0.0197652
0.0278458
0.043617
0.0288208
0.0232865
0.0205117
0.02741
0.0308229
0.0372035
0.0345538
0.0513666
0.0520533
0.0519978
0.0408781
0.0387788
0.0288926
0.0468171
0.0549109
0.0424778
0.0537481
0.127339
0.215192
0.230334
0.269674
0.231601
0.207121
0.202391
0.15938
0.115885
0.183032
0.151228
0.20657
0.204031
0.215154
0.209509
0.182855
0.169813
0.199879
0.18672
0.197777
0.178104
0.12864
0.0906232
0.257456
0.261131
0.217565
0.122384
0.0709928
0.00455763
0.00281015
0
1.01032e-176
0.0063075
0
0
0
0
0
0
0
0
0
0
0
0
0
0
0
0.0125621
0.0135405
0.0138805
2.12925e-133
0.0265531
0.0269567
0.0275409
0.0476646
0.0404274
0.0694893
0.141193
0.169234
0.165694
0.210965
0.169316
0.115566
0.129892
0.103503
0.0960184
0.0852806
0.0833401
0.0757514
0.0467766
0.0518521
0.0926574
0.105569
0.146821
0.163875
0.164411
0.190126
0.246362
0.265001
0.249228
0.181361
0.133771
0.0773634
0
0
0
0
0
0
0
0.0465552
0.0673519
0.0823447
0.0473007
0.0152928
0
0
0
0
0
0
0
1.13635e-322
0.0182791
0.0653855
0.0536883
0.0826779
0.00706428
0.00319235
0
0
0
0
0
0
0
0
0
0
0
0
0
0
0
0
0
0
0
0
0
0
0
0
0
0
0
0
0
0
0
0
0
0
0.0584507
0.0696226
0
0
0
0
0
0
0
0
0
0
0
0
0
0
0
0
0
0.00617523
0.0823046
0.0522311
0.0399394
3.95253e-323
2.96439e-323
0
0
0
0
0.0476169
0.02566
0.0684439
0.252718
0.314892
0.253062
0.255625
0.171052
0.110945
0.110019
0.0519037
0.125145
0.142639
0
0.0399368
0.146661
0.181074
0.166804
0.187598
0.164415
0.18741
0.265869
0.15812
0.142622
0.219092
0.194839
0.223339
0.217707
0.158633
0.0911365
0.113684
0.114502
0.124808
0.200917
0.15994
0.14233
0
8.39912e-323
0.114794
0.0991092
0.0853675
0.0748399
0.0281196
0.140083
0.194166
0.221352
0.188987
1.47657e-72
0
0
0
0
0
0
0
0
0
0
0
0
0
0
0
0
0
0
0
0
0
0
0
0
0
0
0
0
0
0
0
0
0
0
0
0
0
0
0
0
0
0
0
0
0
0
0
0
0
0
0
0
0
0
0
0
0
0
0
0
0
0
0
0
0
0
0
0
0
0
0
0
0
0
0
0
0
0
0
0
0
0
0
0
0
0
0
0
0
0
0
0
0
0
0
0
0
0
0
0
0
0
0
0
0
0
0
0
0
0
0
0
0
0
6.91692e-323
3.56246e-222
0.040039
0.0193987
0
0.0118658
0
0
0
0
0
0
0
0
0
0
0
0
0
0
0
0
0
0
0
0
0
0
0
0
0
0
0
0.00202192
0.00945336
0.010136
0.0163945
0.0321406
0.0378628
0.0352258
0.0266432
0.0235109
0.0192237
0.0271867
0.0102982
0.00489646
0.00464583
0.00312497
0
0
0
2.46563e-224
6.79999e-06
0.00908909
0.00873484
0
0
0.00952586
0.0188985
0
0.0140514
0.0353879
0.0181114
0.0255774
0.0210521
0.00288142
0
0
0
0
0
0
0
0
0
0
0
0
0
0
0
0
0
0
0
0
0
0
0
0
0
0
0
0
0
0
0
0
0
0
0
0
0
0
0
0
0
0
0
0
0
0
0.00881579
0.119112
0.139828
0.132375
0.115113
0.108613
0.0930812
0.0877767
0.0846173
0.072126
0.0701689
0.0475769
0.0388711
0.0580174
0.0401161
0.0430246
0.0357261
0.0256518
0.043992
0.0732694
0.0716543
0.0731729
0.0869899
0.0769264
0.116503
0.0676952
0.0721307
0.071705
0.0737693
0.0730862
0.092348
0.116588
0.136403
0.145489
0.151108
0.160947
0.150856
0.136137
0.137621
0.155868
0.170008
0.169523
0.192691
0.235422
0.235051
0.214216
0.197086
0.192768
0.170787
0.0970495
0.0172992
0
0
0
0
0
0
0
0
0
0
0.0721989
0.177954
0
0
0
0
5.43472e-323
0.0603826
0.0602646
0.257912
0.215647
0.255377
0.268674
0.252131
0.267466
0.198804
0.199279
0.227533
0.191564
0.150253
0.160735
0.122486
0.125211
0.162324
0.164163
0.187195
0.176106
0.177916
0.161657
0.0804778
1.13635e-322
4.94066e-323
1.96777e-314
0
0
0.032875
0.107865
0.141936
0.11379
0.15505
0.179137
0.18665
0.236338
0.227385
0.150037
0.233282
0.148876
0.0357817
0.137757
0.0919653
0.253966
0.20987
0.164996
0.169106
0.148654
0.135292
0.147547
0.156081
0.156837
0.147344
0.149035
0.149807
0.169579
0.200003
0.150332
0.099829
0.120978
0.139965
0.155518
0.0952998
0.0815419
0
0
0
0
0
0
0
0
3.27128e-06
0
0
0
0
0
0
0
0
0
0
0
0
0
0
0
0
0
0
0
0
0
0
0
0
0
0
0
0
0
0
0
0
0
0
0
0
0
0
0
0
0
0
0
0
0
0
0
0
0
0
0
0
0
0
0
0.141339
0.215922
0.252155
0.202193
0.190453
0
0.215366
0.0376844
0.00802015
0.211224
0.0681558
0.218144
0.259992
0.272902
0.140834
0
0
0
0
0
0
0
5.43472e-323
0.178851
0.143392
0.0707126
0
0
0
0
0
0
0
0
0
0
0
0
0
0
0
0
0
0
0
0
0.0605255
0.0267987
0
0
0
0
4.44659e-323
0
0.100775
0.064183
0.194715
0.245507
0.209172
0.143526
0.186883
0.123676
0.0990164
0.0832099
0.078824
0.0798056
0.0771005
0.1498
0.113585
0.00121759
0.0032272
0.0504137
0.00325183
0.0412187
0.0343258
0.02121
0
0
0
0
0
0
0.00251636
0.0220865
0.211301
0.256986
0.259634
0.187722
0.26006
0.186471
0.060761
0.0315516
0.0411163
0.054721
0.0598925
0.0102766
0.036784
0.0490433
0.0248649
0.0234437
0.0428863
0.0381611
0.0260776
0.00164837
0.000245084
0.0372964
0.0166903
0.045031
0.0269441
0.0352497
0.00871328
0
0
0
0
0
0
0
0
0
0
0
0
0
0
0
0
0
0
0
0
0
0
0
0
0
0
0
0
0
0
0
0.0443534
0
0.0818899
0.259186
0.295144
0.354545
0.325615
0.264379
0.309018
0.286851
0.307472
0.175612
0.280412
0.215577
0.23476
0.320479
0.147785
0.0177995
0
0
0
0
0
0
0
0
0
0
0
0
0
0
0
0
0
0
0
0
0
0
0
0
0
0
0
0.00327915
0.0496258
0.0776744
0.00673286
0.00277411
0
0
0
0
0
0
0
0
0
0
0
0
0
0
0
0
0
0
0
0
0
0
0
0
0
0
0
0
0
0
0
0
0
0
2.58138e-06
0
0.0385448
0.14022
0.155858
0.244288
0.188099
0.171316
0.00646889
0.00592652
0.00130907
0.00120279
0.000139561
0.000147547
0
0
0
0
0
0
0
1.97626e-323
0
0
0
0
0
0
0
0
0
0
0
0
0
0
0
0
0
0
0
0
0
0
0
0.0670023
0.175581
0.140179
0.0306419
0.0341119
0.025319
0.0302652
0.00356526
0.0189951
0.00773372
0
0
0
0
0
0
0
0
0
0
0
0
0
0
0
0
0
0
0
0
0
0
0
0
0
0
0
0
0
0
0
0
0
0
0
0.00040803
0.000647185
0.00440928
2.93824e-194
0.000195886
0
0
0
0
0
0
0
0
7.16173e-07
1.33398e-322
0
0
0
0
0
0
0
0
0
0
0
0
0
0
0
0
0
0
0
0
0
0
0
0
0
0
0
0
0
0
0
0
0
0
0
0
0
0
0
0
0
0
0
0
0
0
0
0
0
0
0
0
0
0
0
0
0
0
0
0
0
0
0
0
0
0
0
0
0
0
0
0
0
0
0
0
0
0
0
0
0
0
0
0
0
0
0
0
0
0
0
0
0
0
0
0
0
0
0
0
0
0
0
0
0
0
0
0
0
0
0
0
0
0
0
0
0
0
0
0
0
0
0
0
0
0
0
0
0
0
0
0
0
5.90502e-05
5.31333e-284
4.44659e-323
0.142698
0.245259
0.236481
0.303644
0.164836
0.137004
0.109428
0.145347
0.171699
0.0794502
0.0802705
0.10316
0.0613305
0
0
0
0
0
0.180462
0.0880529
0.416209
0.300468
0.23237
0.234551
0.285951
0.337422
0.160474
0.315521
0
0
0
0
0
0
0
0
0
0
0
0
0
0
0
0
0
0
0
0
0
0
0
0
0
0
0
0
0
0
0
0
0
0
0
0
0
0
0
0
0
0.118863
0.208841
0
0
0
0
0
0.0887004
0.161448
0.247128
0.27003
0.262148
0.137155
0.195856
0.139527
0.122369
0.140845
0.20427
0.194061
0.137315
0.0924403
0.176127
0.285737
0.161034
0.287845
0.177222
0.30085
0.123185
0.28298
0.138456
0.332208
0.236387
0.242075
0.0595426
0.139096
0
0
0
0
0
0
0
0
0
0
0
0
0
0
0
0
0
0
0
0.00100879
0
0.00100219
0
0
0
0
0
0
0
0
0
0
0
0
0
0
0
0.0145773
0.00978269
0.0522102
0.0830339
0.0359335
0.0251631
6.42285e-323
0
0
0
0
0
0
0
0
0
0
0
0
0.00101547
0
0
3.72973e-05
0
0
0
0
0
0
0
0
0
0
0
0
0
0
0
0
0
0
0
0
0
0
0
0
0
0
0
0
0
0
0
0
0
0
0
0
0
0
0
0
0
0
0
0
0
0
0
0
0
0
0
0
0
0
0
0
0.0468214
0.0431633
0.0309092
0.061801
0.0742189
0.0274806
0.0392834
0
0
0
0
0
0
0
0
0
0
0
0
0
0
0
0
0
0
0
0
0
3.45846e-323
0
0.0359284
0.101333
0.0966557
0.208792
0.187075
0.238767
0.0508775
0.0775527
0.0656216
0
0
0
0
0
0
0
0
0
0
0
0
0
0
0
0
0
0
0
0
0
0
0
0
0
0
0
0
0
0
0
0
0
0
0
0
0
0
0
0
0
0
0
0
0
0
0
0
0
0
0
0
0
0
0
0
0
0
0
0
0
0
0
0
0
0
0
0
0.000243303
0.00148491
3.47616e-06
0
0
0
0
0
0
0
0
0
0
0
0
0
0
0
0
0
0
0
0
0
0
0
0
0
0
0
0
0
0
0
0
0
0
0
0
0
0
0
0
0
0
0
0
0.00100593
0.000989154
0.000439236
0.0176941
0.00889977
0.0317222
0.085565
0.119923
0.2206
0.109635
0.105621
0.0565691
0.0630667
0.0850625
0.116093
0.0969119
0.0816592
0.069315
0.0931735
0.0849085
0.0938777
0.0699475
0.0447448
0.0449529
0.0301568
0.0242697
0.286248
0.0392576
0.316766
0.0537606
0.0384353
0.0240392
0.0362643
0.0295977
0.0153882
0.000559676
0.00214083
0.00544097
0.0351756
0.0812239
0.0710107
0.0930618
0.0799043
0.122667
0.122412
0.133629
0.103587
0.116288
0.11969
0.12898
0.121571
0.119932
0.0772111
0.0681502
0.154406
0.151554
0.108788
0.107697
0.0934583
0.105471
0.1405
9.88131e-324
0.0135857
0.00645679
0.0239127
0.0379564
0.0445033
0.0949259
0.134075
0.0585471
0.0365143
0.0270677
0.0316152
0.0282489
0.0293396
0.0577254
0.055524
0.0902847
0.101054
0.0897675
0.0820905
0.0349111
0
0
0
0
0
2.47033e-323
0.000995107
0.0405339
0.15011
0.151065
0.159768
0.127297
0.124666
0.188011
0.190086
0.23468
0.128986
0.181484
0.118967
0.275027
0.334403
0.35141
0.140125
0.0498422
0.0350467
0.0482208
0.220485
0.0386191
0.0160307
0.0138489
0.0217241
0.0799163
0.148953
0.153378
0.166985
0.150187
0.270855
0.151643
0.026281
0.000844739
0.000534086
0
0
0
0
0
7.77735e-05
0.00100997
0.000666495
0
0
0
0
0
0
0
0
0.0967737
0.142979
0.196424
0.298911
0.230306
0.16499
0.133104
0.138207
0.208209
0.151418
0.088432
0.134832
0.194182
0.160451
0.142031
0.0954294
0.161299
0.174342
0.0718773
0.0664406
0.0613221
0.0727507
0.0789193
0.0599442
0.0391364
0.0335762
0.0874741
0.149089
0.0853018
0.107137
0.125622
0.101194
0.0786836
0.0576176
0.0440388
0.0419522
0.0802752
0.0630651
0.0530994
0.102778
0.089545
0.0655926
0.072533
0.0130556
0
0
0
0
0
0
0
0
0
0
0
0
0
0
0
0
0
0
0
0
0
0
2.18729e-05
0
0
0
0
0
0
0
0.0242198
0.00230165
0
0.000760128
3.45846e-323
0.045027
1.4822e-323
0.088325
9.88131e-323
0.0229855
0.0102387
0
0
0
0
0
0
0
0
0
0
0
0
0.268217
0.0719082
0.177155
2.47033e-323
4.94066e-323
0.21251
0.221286
0.312148
0.300773
0.361385
0.363276
0.340573
0.320821
0.299339
0.327909
0.298077
0.24438
0.302498
0.254467
0.204584
0.0467127
0.00126894
0.00097135
3.70502e-05
0.0236072
0.0378671
0.180772
0.0928404
0.0601238
0
0
0
0.138477
0.242873
0.30813
0.388927
0.277359
0.332398
0.316389
0.344739
0.331451
0.40673
0.342501
0.147586
0.362498
0.377593
0.343232
0.350537
0.296277
0.298733
0.206764
0.259712
0.245642
0.131881
0.196401
0.38701
0.366785
0.461239
0.409471
0.354453
0.266985
0.241768
0.215805
0.207429
0.237977
0.215605
0.259482
0.185853
0.181988
0.1904
0.148921
0.298047
0.227758
0.271496
0.434273
0.17229
0.441363
0.277904
0.225941
0
0
0
0
0
4.94066e-323
0
0
0
0
0
0
0
0
0
0
0
0
0
0
0
0
0
0
0
0
0
0
0
0
0
0
0
0
0
0
0
0
0
0
0
0
0
0
0
0
0
0
0
0
0
0
0
0
0
0
0
0
0
0
0
0
0
0
0
0
0
0
0
0
0
0
0
0
0
0
0
0
0
0
2.96439e-323
0.0515626
0.0119061
0.017511
0.00090291
0.000868746
0
0
0
0.00666907
0.00228284
0
0
0
0.000279995
0
0
5.43472e-323
0.0390726
0.162278
0.0282156
0.236973
0.162878
0.15674
0.168665
0.174947
0.12489
0.157842
0.163273
0.160901
0.1646
0.181134
0.170165
0.191161
0.188021
0.18303
0.181246
0.228412
0.0327852
0.0465236
0
1.76453e-05
9.06509e-236
0.0270441
0.01987
0
0
0
0
0
0
0
0
0
0
0
0
0
0
0
0
0
0
0
0
0
0
0
0
0
0
0
0
0
0
0
0
0
0
0
0
0
0
0
0
0
0
0
0
0
0
0
0
0
0
0
0
0
0
0
0
0
0
0
0
0
0
0
0
0
0
0
0
0
0
0
0
0
0
0
0
0
0
0
0
0
0
0
0
0
0
0
0
0
0
0
0
0
0
0
0
0
0
0
0
0
7.55017e-13
5.17581e-142
0.0682502
0.159751
0.204299
0.212856
0.175561
0.168229
0.152209
0.0879472
0.00430569
0.00301639
0
0
0
0
0
0
0
0
0
0
0
0
0
0
0.0727325
0.0631074
0.126022
0.153572
0
0.127362
0.174564
0.166816
0.107459
0.296903
0.150078
0.185008
1.97626e-323
0
0
0
0
0
0
0
0
0
0
0
0
0.00100986
0.174056
0.0998525
0.103972
0.0883785
0.0358024
0.0676283
0.0710775
0.102003
0.0972736
0.0745717
0.0727358
0.0383759
0.10143
0.0619798
0.0885054
0.0822455
0.0543545
0.0392096
0.0844114
0.0400093
0.0511388
3.01181e-41
0
0.00100869
0
0.00653516
0
0
0
0
0
0
0
0
0
0
0
0.190126
0
0
0
0
0
0
0
0
0
0.0144344
0.0969651
0.130064
0.132256
0.114719
0.122163
0.10714
0.0735458
0.0645419
0.120694
0.131978
0.141376
0.123696
0.109618
0.093156
0.106069
0.122781
0.0866453
0.090747
0.0435495
0.0167497
0.0212326
0.0289219
0.0350193
0.0379077
0.0435534
0.0483282
0.0470851
0.0580681
0.0429066
0.0220777
0
0
0
0
0
0
0
0
0
0
0
0
0
0
0
0
0
0.0272566
0.0399026
0.0734657
0.108505
0.110155
0.0769666
0.0812598
0.111269
0.0764525
0.0359371
0.00832739
0
0
0
0
0
0
0
0
0
0
0
0
0
0
0
0
0
0
0
0
0
0
0
0
0
0
0
0
0
0
0
0
0.000302947
0.00201745
0.00330789
0.00594639
0.0362809
0.0660749
0.0612305
0.049885
0.0327045
0.0416289
0.0671939
0.0603889
0.0478876
0.0169116
0.0182037
0.0282404
0.0576677
0.0928775
0.13356
0.115133
0.0789152
0.141311
0.0971535
0.107957
0.15866
0.143943
0.137304
0.0901606
0.0933037
0.104081
0.0964468
0.0516441
0.0662679
0.0544858
0.0436208
0.0368335
0.0545522
0.047522
0.160504
0.130823
0.11295
0.113724
0.0536412
0.0333673
0.0644896
0.0710267
0.0803166
0.0576978
0.051592
0.0513867
0.0635848
0.0835249
0.0666514
0.0707915
0.0883348
0.0847004
0.0860717
0.0935847
0.111853
0.0922253
0.0735374
0.0786449
0.047968
0.0698752
0.0428216
0.0319099
0.00355446
0.00354012
0.00325371
0.00150464
0
0
0
0
0
0
0
0
0
0
0
0
0
0
0
0
0
0
0
0
0
0
0
0
0
0
0
0
0
0
0
0
0
0
0
0
0
0
0
0
0
0
0
0
0
0
0
0
0
0
0
0
0
0
0
0
0
0
0
0
0
0
0
0
0
0
0
0
0
0
0
0
0
0
0
0
0
0
0
0
0
0
0
0
0
0
0
0
0
0
0
0
0
0
0
0
0
0
0
0
0
0
0
0
0
3.19719e-41
0
0
0
0
0
0
0.000188103
0.00131417
0.000996099
9.42887e-05
0
0
0
0
0.000920153
0
0
0
0
0
0
0.0107663
0
0.0101342
0
0.00193542
0.00235755
0.0678777
0.0680544
0.0140315
0.0273739
0.0590956
0.00733618
0
0
0
0
0
0
0
0
0
0
0
0
0
0
0
0
0
0
0
0
0
0
0
0.00788752
0.000641345
0.0468434
0.08797
0.179473
0.177909
0.118454
0.068632
0.00995223
0.0691658
0.0604958
0
0
0
0
0
0
0
0