/*--------------------------------*- C++ -*----------------------------------*\
| =========                 |                                                 |
| \\      /  F ield         | OpenFOAM: The Open Source CFD Toolbox           |
|  \\    /   O peration     | Version:  1.6.x                                 |
|   \\  /    A nd           | Web:      www.OpenFOAM.org                      |
|    \\/     M anipulation  |                                                 |
\*---------------------------------------------------------------------------*/
FoamFile
{
    version     2.0;
    format      ascii;
    class       volScalarField;
    location    "5399.9";
    object      S;
}
// * * * * * * * * * * * * * * * * * * * * * * * * * * * * * * * * * * * * * //

dimensions      [0 1 0 0 0 0 0];

internalField   nonuniform List<scalar> 
25153
(
459.02
459.183
459.28
459.153
459.173
459.237
459.197
459.137
459.34
459.247
459.097
459.07
458.977
459.017
458.98
459.1
459.21
459.057
459.06
459.047
458.937
458.87
458.817
458.797
458.767
458.733
458.673
458.673
458.6
458.547
458.583
458.607
458.533
458.523
458.477
458.44
458.407
458.343
458.353
458.387
458.407
458.367
458.317
458.367
458.31
458.263
458.347
458.36
458.377
458.353
458.35
458.34
458.37
458.437
458.443
458.47
458.477
458.523
458.61
458.573
458.477
458.49
458.547
458.46
458.463
458.447
458.433
458.447
458.52
458.557
458.597
458.59
458.653
458.613
458.637
458.75
458.87
458.77
458.973
459.013
459.09
459.19
459.277
459.36
459.293
459.4
459.303
459.473
459.56
459.57
459.647
460.65
461.35
463.51
466.35
466.737
467.453
464.857
462.443
460.893
459.933
459.73
459.457
459.39
459.413
459.4
459.407
459.41
459.393
459.333
459.28
459.18
459.137
459.033
458.983
458.927
458.907
458.847
458.88
458.867
458.773
458.75
458.797
458.72
458.7
458.647
458.58
458.52
458.49
458.447
458.367
458.07
457.457
457.167
457.263
456.747
456.503
456.243
456.273
455.997
456.04
456.3
456.137
456.273
456.583
456.337
456.293
456.607
457.033
457.073
457.567
457.647
458.143
458.37
458.393
457.027
456.757
456.12
455.923
456.01
455.783
455.49
455.043
454.64
454.58
454.16
453.99
453.963
454.11
453.98
453.98
453.837
453.923
453.917
454.053
454.247
454.247
454.067
453.943
453.97
453.813
453.81
453.657
453.79
453.83
453.967
453.917
453.817
453.817
453.927
454.04
453.987
454.06
454.327
454.46
454.533
454.9
455.357
455.713
456.227
456.47
455.98
456.17
456.73
456.127
455.35
455.847
456.633
456.56
455.773
455.077
454.603
454.3
454.537
454.223
454.24
454.06
454.103
454.397
454.573
455.123
455.603
455.543
456.277
456.383
456.957
457.373
457.227
457.657
458.017
458.113
458.02
458.067
458.183
458.373
458.27
458.367
457.983
457.847
457.753
457.86
457.727
457.6
457.433
457.377
457.54
457.633
457.723
457.85
457.94
457.597
457.247
457.927
457.72
457.437
457.297
456.85
456.57
456.73
456.233
455.683
454.987
454.713
455.133
455.177
454.61
454.13
453.747
454.15
454.96
455.393
456.247
456.983
456.933
456.033
457.16
456.557
457.593
457.743
457.83
458.027
457.99
458.367
458.32
458.347
458.377
458.353
458.36
458.36
458.417
458.45
458.493
458.487
458.503
458.57
458.537
458.533
458.473
458.443
458.523
458.58
458.61
458.76
458.78
458.843
459.027
459.177
459.01
458.957
458.75
458.753
458.613
458.63
458.617
458.617
458.687
458.707
458.613
458.68
458.657
458.563
458.583
458.537
458.48
458.737
458.82
458.99
458.973
459.14
459.147
459.18
459.303
459.637
459.653
460.003
460.28
460.823
460.99
460.94
460.847
462.153
463.02
461.507
460.353
460.187
460.327
460.533
460.443
460.397
461.89
464.483
465.48
466.08
467.923
459.91
460.01
459.917
459.777
459.737
459.667
459.63
459.687
459.72
459.677
459.647
459.56
459.483
459.483
459.553
459.477
459.48
459.5
459.46
459.393
459.347
459.3
459.26
459.23
459.16
459.233
459.103
459.04
459.033
458.92
458.95
459.007
458.953
458.877
458.97
459.07
459.127
459.023
458.937
458.757
458.723
458.827
458.673
458.673
458.55
458.55
457.9
457.203
456.603
456.44
456.343
456.277
456.157
456.267
456.257
456.373
456.173
456.13
456.347
456.13
455.88
455.797
455.897
455.573
455.56
455.37
455
454.857
454.787
454.91
455.363
455.44
455.303
454.997
455.07
455.513
455.777
455.763
456.213
455.887
456.34
456.48
456.123
455.763
455.613
454.68
454.45
454.41
454.303
454.28
454.257
454.227
454.127
454.097
454.16
454.173
454.297
453.94
453.87
453.917
453.86
453.773
453.733
453.697
453.7
453.647
453.653
453.647
453.63
453.633
453.63
453.677
453.717
453.693
453.74
453.79
453.64
453.627
453.6
453.603
453.607
453.57
453.583
453.7
453.57
453.61
453.607
453.537
453.53
453.527
453.57
453.587
453.64
453.623
453.567
453.587
453.66
453.723
453.79
453.763
453.673
453.677
453.66
453.607
453.543
453.487
453.513
453.497
453.513
453.537
453.543
453.567
453.663
453.697
453.623
453.733
453.723
453.627
453.65
453.7
453.623
453.537
453.607
453.567
453.543
453.513
453.45
453.447
453.47
453.553
453.69
454.003
454.39
454.837
455.18
455.57
455.44
455.997
455.543
455.527
454.937
454.64
454.673
454.26
454.26
456.31
457.047
456.097
454.987
455.687
454.713
454.083
454.303
454.087
453.757
453.617
453.563
453.483
453.483
453.54
453.477
453.48
453.46
453.47
453.493
453.547
453.603
453.683
453.687
453.98
454.07
454.697
454.687
454.087
454.207
453.89
453.987
453.683
453.537
453.54
453.47
453.467
453.47
453.493
453.457
453.49
453.47
453.42
453.407
453.437
453.443
453.457
453.397
453.407
453.347
453.353
453.44
453.487
453.397
453.313
453.327
453.35
453.393
453.39
453.43
453.393
453.417
453.46
453.457
453.437
453.49
453.487
453.557
453.54
453.453
453.467
453.49
453.54
453.557
453.607
453.65
453.673
453.823
454.053
453.997
454.303
454.783
454.967
454.587
454.303
454.06
453.92
453.867
453.907
453.747
453.63
453.6
453.643
453.623
453.667
453.71
453.727
453.68
453.64
453.583
453.567
453.613
453.57
453.487
453.48
453.443
453.433
453.407
453.36
453.317
453.26
453.253
453.24
453.333
453.58
453.957
454.397
454.793
455.157
455.453
455.463
455.027
454.963
454.613
454.25
453.92
453.937
454.243
453.637
453.533
453.32
453.27
453.287
453.253
453.227
453.267
453.293
453.383
453.47
453.487
453.547
453.5
453.477
453.413
453.427
453.293
453.243
453.24
453.277
453.3
453.28
453.297
453.28
453.307
453.36
453.297
453.26
453.27
453.377
453.397
453.48
453.437
453.403
453.42
453.423
453.56
453.777
453.71
453.493
453.463
453.677
454.187
454.933
455.437
454.81
454.9
455.47
455.88
456.113
456.723
457.293
457.337
457.13
457.443
457.06
456.583
455.763
455.633
454.773
454.71
454.073
454.17
454.71
454.687
454.127
453.747
454.073
454.59
454.667
454.3
455.41
455.95
455.583
456.03
456.733
456.423
457.243
457.4
457.9
458.007
457.73
457.097
456.417
455.767
455.313
455.273
454.567
455.143
454.387
453.94
454.247
453.753
453.733
454.853
455.433
458.123
458.153
458.283
458.293
458.25
458.12
458.033
457.713
457.887
458.363
458.363
458.327
458.237
458.26
457.85
456.81
457.167
456.63
455.347
455.597
456.743
457.4
457.727
457.74
457.82
457.72
457.503
457.693
457.67
457.823
457.963
457.997
458.053
458.117
458.237
457.983
458.103
458.077
458.377
458.473
458.393
458.507
458.473
458.463
458.283
458.333
458.337
458.693
458.647
458.4
458.37
458.36
458.387
458.52
458.593
458.537
458.77
459.217
459.643
460.21
460.337
460.177
460.147
460.447
460.563
460.597
460.577
460.717
460.843
461.207
461.18
460.9
460.893
460.787
460.397
459.943
459.663
459.747
459.66
459.57
459.407
459.35
459.317
459.23
459.16
459.433
459.81
460.343
460.567
459.637
459.313
459.177
459.233
459.247
459.337
459.347
459.293
459.4
459.357
459.19
459.013
459.087
459.293
459.39
459.07
459.157
459.503
459.463
459.467
459.48
459.417
459.433
459.58
460.67
460.597
460.513
460.327
460.577
460.487
460.643
460.877
460.917
460.987
460.913
461.103
461.67
462.077
462.93
463.407
464.907
466.057
465.58
464.1
463.273
462.947
462.55
462.197
462.383
463.173
463.607
464.313
465.043
465.373
464.35
463.89
463.78
464.203
464.193
463.87
464.1
463.393
463.183
463.123
463.057
463.01
462.857
462.88
462.69
462.48
462.343
462.327
462.213
462.147
462.017
462.02
461.947
461.98
461.893
461.777
461.75
461.65
461.51
461.09
461.043
460.943
460.763
460.717
460.57
460.583
460.49
460.347
460.283
460.287
460.197
460.17
460.19
460.27
460.157
460.13
459.983
459.88
459.883
459.84
459.737
459.783
459.71
459.72
459.617
459.483
459.517
459.44
459.473
459.647
459.867
460.08
459.917
459.7
459.567
459.45
459.513
459.373
459.353
459.33
459.247
459.137
459.18
459.297
459.357
459.457
459.48
459.42
459.063
458.653
458.957
458.693
458.6
458.01
457.753
457.973
457.48
457.143
456.93
456.883
457.003
457.173
457.647
457.857
457.163
457.613
457.677
458.14
457.72
457.783
457.38
457.877
457.97
457.527
457.08
456.697
456.117
456.09
456.617
456.647
456.22
456.55
455.81
455.597
455.457
455.307
455.233
455.283
455.493
455.5
455.557
455.723
455.823
455.88
455.857
455.803
455.793
455.767
455.753
455.78
455.747
455.693
455.677
455.683
455.717
455.753
455.747
455.74
455.683
455.617
455.58
455.53
455.583
455.66
455.627
455.62
455.507
455.503
455.44
455.46
455.39
455.323
455.327
455.317
455.313
455.313
455.363
455.4
455.363
455.367
455.41
455.41
455.423
455.483
455.477
455.6
455.66
455.663
455.63
455.627
455.617
455.62
455.54
455.583
455.407
455.233
455.153
455.167
455.273
455.277
455.66
455.633
455.267
455.8
456.233
456.133
455.817
456.18
455.743
455.813
456.17
456.707
456.923
457.093
457.357
457.697
457.977
457.733
457.613
457.263
457.05
456.787
456.88
456.743
456.747
456.86
456.927
456.83
457.503
457.827
457.62
456.943
456.83
456.81
456.767
456.61
456.643
456.64
456.553
456.517
456.683
456.69
456.427
456.373
456.293
456.38
456.51
456.69
456.603
456.453
456.4
456.457
456.263
456.01
455.71
455.417
455.273
455.54
455.387
454.973
454.897
454.9
454.747
454.697
454.687
454.603
454.59
454.703
454.767
454.793
454.897
454.73
454.7
454.747
454.67
454.63
454.487
454.463
454.583
454.553
454.423
454.363
454.44
454.353
454.313
454.303
454.263
454.277
454.287
454.343
454.343
454.333
454.37
454.38
454.347
454.37
454.453
454.49
454.583
454.523
454.437
454.447
454.36
454.4
454.44
454.3
454.057
454.06
453.933
453.873
453.99
453.983
453.847
453.783
453.727
453.743
453.727
453.78
453.867
453.933
453.997
454.013
454.013
453.86
453.77
453.767
453.71
453.69
453.693
453.65
453.68
453.637
453.627
453.643
453.74
453.727
453.843
454.043
454.147
454.38
454.83
454.873
455.4
455.977
456.343
456.627
456.663
456.753
456.803
456.843
456.823
456.77
456.743
456.65
456.52
456.583
456.34
455.833
455.77
455.22
455.207
455.653
455.537
455.857
455.723
455.983
455.937
455.667
455.677
455.877
455.84
456.14
456.31
456.187
456.427
456.56
456.787
457.54
458.143
459.197
460.95
461.57
464.217
464.82
461.653
461.5
458.477
458.323
459.667
457.89
456.287
456.313
456.54
456.177
456.2
456.063
456.057
455.787
455.843
455.303
455.45
454.84
454.993
454.4
454.503
454.137
454.677
454.693
454.277
454.727
454.76
454.377
454.11
454.143
454.063
454.293
454.61
454.867
454.817
454.973
454.417
454.283
454.04
453.867
453.767
453.647
453.62
453.663
453.63
453.713
453.707
453.593
453.6
453.593
453.57
453.583
453.57
453.62
453.713
453.7
453.56
453.62
453.557
453.613
453.813
453.987
453.79
454.113
454.42
454.84
455.33
453.953
454.83
455.38
455.767
455.3
455.823
455.857
456.34
456.33
455.89
455.803
456.163
456.093
455.607
456.313
456.45
456.35
456.507
456.46
456.73
456.823
456.827
456.797
457.107
456.007
456.533
456.547
456.23
455.3
453.977
455.343
455.24
453.853
453.77
453.68
453.573
453.483
453.54
453.527
453.49
453.493
453.483
453.497
453.473
453.52
453.553
453.597
453.477
453.467
453.41
453.423
453.437
453.417
453.43
453.387
453.403
453.397
453.43
453.477
453.447
453.437
453.473
453.51
453.587
453.407
453.427
453.403
453.393
453.343
453.353
453.38
453.433
453.42
453.357
453.417
453.387
453.413
453.447
453.41
453.417
453.4
453.433
453.413
453.43
453.41
453.457
453.48
453.517
453.633
453.683
453.807
453.867
453.88
453.777
453.777
454.077
454.403
454.257
454.617
455.26
455.413
455.103
454.11
454.54
454.137
453.457
453.463
453.463
453.46
453.443
453.433
453.45
453.443
453.393
453.417
453.4
453.387
453.387
453.46
453.47
453.543
453.443
453.543
453.623
453.647
453.817
455.113
453.99
455.59
454.25
456.02
454.58
456.227
455.207
455.6
455.76
456.373
455.82
455.623
455.753
455.173
454.917
454.867
454.383
454.27
454.133
453.893
453.877
454.063
453.997
453.8
453.75
453.893
453.86
453.667
453.707
453.58
453.533
453.73
453.67
453.427
454.033
454.023
454.52
454.943
454.867
455.313
455.527
455.483
455.67
455.813
455.843
455.787
455.853
456.903
456.827
455.643
455.517
455.5
455.207
454.957
455.007
454.61
454.263
454.337
453.813
453.387
453.413
453.253
453.2
453.213
453.237
453.257
453.237
453.257
453.273
453.27
453.237
453.223
453.22
453.213
453.223
453.197
453.207
453.18
453.18
453.207
453.21
453.167
453.127
453.117
453.04
453.07
453.087
453.087
453.097
453.15
453.16
453.13
453.147
453.177
453.193
453.187
453.29
453.343
453.467
453.397
453.45
453.493
453.48
453.463
453.593
453.737
454.04
454.427
454.38
453.86
453.853
454.42
454.997
455.207
455.293
454.73
455.05
455.713
455.813
456.553
456.443
457.233
455.32
454.707
454.827
454.37
454.48
454.383
454.33
454.393
454.04
453.707
453.477
453.373
453.48
453.423
453.63
453.957
454.043
453.913
453.733
453.637
453.443
453.243
453.173
453.347
453.507
453.83
454.17
454.32
454.007
454.413
454.987
455.34
455.527
456.263
456.243
456.543
457.133
457.047
456.55
456.357
456.257
456.33
457.113
457.197
457.46
457.64
457.827
457.36
457.38
457.383
457.2
457.1
456.953
456.857
456.913
456.887
457.067
457.177
457.137
457.327
457.29
457.003
456.847
456.763
456.707
456.667
456.583
456.353
456.423
456.32
456.247
456.19
455.753
455.52
455.947
455.71
455.88
455.37
455.39
455.88
455.887
455.81
455.757
455.743
455.753
455.87
455.913
455.83
455.927
456.09
456.203
456.153
456.317
456.297
456.453
456.39
456.64
456.72
457.067
457.113
457.287
457.37
457.447
457.48
457.607
457.667
457.89
457.787
458.09
458.19
458.337
458.143
458.007
457.407
457.397
457.397
457.4
457.413
457.453
457.597
457.727
457.837
457.933
457.87
457.83
457.74
458.013
458.23
458.503
458.253
458.297
458.77
458.903
458.863
458.63
458.903
458.667
458.473
458.74
458.553
458.583
459.173
459.477
459.503
459.617
459.657
459.917
459.51
459.46
459.527
459.55
459.377
459.547
459.87
460.113
460.25
460.163
460.32
460.537
460.707
460.89
461.01
461.04
460.703
460.537
460.853
460.803
460.937
461.31
461.283
462.503
464.343
468.193
469.48
472.377
471.317
467.233
466.217
467.277
464.38
462.757
461.42
461.203
461.643
461.73
461.977
462.037
462.07
462.043
462.157
462.32
462.547
462.587
462.363
462.403
462.32
462.05
462.04
461.71
461.507
461.253
461.173
461.127
460.907
460.82
460.82
460.703
460.4
460.177
461.31
461.643
461.083
462.1
461.707
461.547
461.417
461.6
461.753
461.947
461.793
461.277
461.207
461.563
461.427
461.207
461.527
461.637
461.39
461.84
461.63
461.553
461.42
461.327
461.153
461.407
461.557
461.783
461.767
462.093
462.403
462.65
462.85
462.63
462.7
463.053
463.033
463.343
463.333
463.34
463.35
463.697
463.91
463.923
463.68
463.643
463.393
464.287
465.287
468.267
467.813
464.543
448.077
447.99
451.737
451.767
451.747
451.74
450.283
450.373
450.527
450.677
450.913
450.857
450.697
453.447
453.373
453.467
453.423
453.5
453.75
453.917
453.727
453.773
453.62
453.647
453.89
453.973
454.093
454.11
454.29
454.47
454.497
453.643
467.1
466.15
466.16
466.553
463.527
460.81
459.93
461.79
459.213
459.06
459.853
458.323
458.013
457.467
457.383
457.61
457.817
457.683
457.667
457.88
458.19
458.333
468.207
468.267
468.28
468.333
468.277
468.333
468.343
468.48
468.603
468.507
468.437
468.497
468.657
468.723
468.927
469.083
468.907
469.553
469.577
469.63
469.537
469.573
469.62
469.65
469.827
469.807
469.817
469.74
469.777
469.753
469.83
469.913
470.377
469.937
469.95
469.943
469.843
469.843
469.747
469.783
469.77
469.91
469.123
469.04
468.997
468.937
468.88
468.8
468.873
468.863
468.84
468.857
468.833
468.8
468.753
468.717
468.73
468.747
468.777
468.853
468.937
468.897
468.92
468.983
469.01
469.083
469.143
469.187
469.03
468.98
468.943
469.053
468.897
469.13
469.383
469.113
469.63
469.6
470.103
470.143
470.073
470.037
470.03
469.957
469.973
469.847
469.853
469.943
470.023
470.023
470.107
470.143
470.633
470.597
470.983
470.427
469.973
471.347
471.823
471.177
471.317
472.35
472.527
471.647
472.887
472.043
472.22
473.22
473.257
472.443
472.717
473.053
472.463
471.753
471.313
470.823
470.57
470.39
470.293
470.18
470.177
470.13
470.173
470.257
470.34
470.33
470.26
470.307
470.437
470.493
470.437
470.653
470.78
470.617
470.61
470.737
471.237
472.253
472.143
472.073
472.123
472.037
472.07
471.957
471.75
471.247
471.35
470.71
470.907
471.453
471.773
471.737
471.613
471.55
471.43
470.897
470.49
469.773
469.79
469.263
469.063
468.447
468.247
468.113
467.863
467.733
467.953
467.967
467.91
468.06
468.027
467.867
467.687
467.597
467.587
467.643
467.62
467.597
467.583
467.56
467.537
467.517
467.477
467.503
467.51
467.523
467.52
467.503
467.467
467.49
467.53
467.643
467.64
467.53
467.483
467.433
467.42
467.417
467.43
467.44
467.397
467.393
467.347
467.343
467.31
467.317
467.32
467.403
467.463
467.553
467.557
467.577
467.587
467.57
467.463
467.33
467.3
467.347
467.263
467.243
467.21
467.19
467.227
467.25
467.273
467.267
467.227
467.213
467.197
467.19
467.177
467.2
467.217
467.187
467.163
467.19
467.157
467.143
467.153
467.163
467.17
467.16
467.123
467.093
467.083
467.06
467.053
467.023
467.03
467.027
466.993
466.98
466.953
466.963
466.943
466.95
466.96
466.93
466.913
466.91
466.91
466.887
466.867
466.843
466.833
466.837
466.853
466.907
466.997
467
466.94
466.96
467.003
466.943
467.02
466.973
467.003
467.073
467.03
467.053
467.007
467.083
467.173
467.153
467.08
467.117
467.16
467.217
467.473
467.593
468.093
468.4
468.087
467.667
467.877
467.803
467.46
467.323
467.317
468.163
468.907
469.523
470.27
470.727
471.093
471.27
471.32
470.8
470.517
470.01
470.093
469.613
468.987
468.293
467.943
467.613
467.677
467.427
467.607
467.483
467.313
467.277
467.25
467.287
467.273
467.283
467.303
467.337
467.357
467.413
467.703
467.63
467.787
467.643
467.513
467.487
467.803
468.003
468.23
468.747
469.337
469.093
468.537
468.83
470.033
469.777
469.947
470.66
470.793
471.247
471.017
471.123
471.48
471.467
471.6
471.727
471.833
471.89
472.023
471.743
471.593
471.777
463.687
463.693
463.69
463.793
463.76
463.663
463.657
463.66
463.137
462.98
463.29
463.08
463.087
462.977
462.863
462.933
462.78
462.703
462.61
462.54
462.6
462.693
462.573
462.343
462.347
462.22
462.13
461.85
461.83
461.757
461.737
461.693
461.54
461.39
461.633
461.563
461.423
461.37
461.343
461.17
461.093
460.98
460.903
460.84
460.827
460.763
460.68
460.68
460.67
460.77
460.827
460.883
460.943
460.777
460.767
460.657
460.68
460.903
461.007
461.07
460.937
460.97
461.08
461.133
461.117
460.993
461.14
461.223
461.203
461.36
461.427
461.43
461.547
461.63
461.39
461.31
461.36
461.293
461.467
461.177
460.85
460.51
460.44
460.223
460.2
460.32
460.41
460.17
460.113
460.113
460.367
460.28
459.95
459.853
460
459.897
459.687
460.123
460.06
460.17
460.147
460.263
460.237
460.013
459.893
459.81
459.743
459.637
459.607
459.553
459.473
459.55
459.43
459.92
460
460.03
460.107
459.6
459.117
458.76
458.863
459.043
458.553
457.93
457.37
456.97
456.917
456.453
456.45
455.993
455.643
455.647
455.633
455.733
455.857
455.827
455.94
455.9
455.777
455.673
455.657
455.637
455.627
455.603
455.59
455.787
456.143
455.497
455.48
455.49
455.433
455.43
455.52
455.48
455.397
455.41
455.44
455.457
455.523
455.513
455.567
455.947
455.933
455.91
455.923
455.903
455.893
455.837
455.793
455.803
455.87
455.877
455.923
455.917
455.913
455.96
455.95
455.927
455.92
455.993
455.99
455.987
455.887
455.903
455.917
455.84
455.783
455.82
455.847
455.89
455.88
455.88
455.82
455.807
455.763
455.777
455.74
455.743
455.76
455.79
455.787
455.767
455.777
455.75
455.71
455.683
455.717
455.707
455.617
455.657
455.637
455.65
455.607
455.633
455.607
455.61
455.597
455.633
455.63
455.82
456.067
455.957
455.657
455.633
455.943
456.47
456.927
457.527
457.69
457.307
457.433
457.847
457.853
457.363
456.81
456.7
456.153
456.017
456.043
455.96
455.893
455.82
455.843
455.93
456.05
456.403
456.677
456.35
456.38
456.943
457.46
457.963
458.217
458.487
458.473
458.403
458.413
458.45
458.513
458.507
458.567
458.53
458.577
458.54
458.347
458.4
458.557
458.523
458.487
458.21
458.35
457.813
457.15
456.49
456.383
456.063
455.98
455.96
455.89
455.857
455.82
455.82
455.883
455.897
455.927
455.933
456.01
456.297
456.853
456.893
457.62
457.633
456.943
456.947
457.66
457.617
458.243
458.61
458.833
458.787
458.473
458.13
457.893
457.953
458.3
458.037
457.973
458.343
458.813
458.923
459.13
458.96
459.043
459.25
459.36
459.53
464.393
464.477
463.673
463.6
464.317
464.48
465.25
465.247
465.65
466.427
466.19
465.333
465.127
464.813
464.96
465.87
466.58
468.433
468.377
468.863
468.417
465.73
465.723
465.043
465.137
466.053
465.917
465.26
465.62
464.76
465.603
465.353
463.957
463.457
463.797
462.66
462.687
462.317
462.387
462.463
462.393
462.403
462.49
462.46
462.473
462.54
462.503
462.493
462.31
462.393
462.633
462.727
462.84
462.873
462.86
462.787
462.593
462.61
462.56
462.497
462.723
462.83
462.903
462.997
463.333
463.157
463.507
464.053
465.11
465.677
466.6
467.243
467.26
467.363
467.553
467.657
467.67
467.723
467.763
467.897
467.81
468
466.967
465.85
464.82
464.963
466.17
466.28
465.113
464.86
464.72
464.14
463.953
463.843
464.017
464.033
464.17
464.053
463.637
463.297
463.373
463.187
463.483
463.447
463.493
463.61
463.443
463.423
463.63
463.78
463.733
463.927
464.62
464.74
465.317
464.737
465.263
466.04
465.777
465.887
465.683
465.113
464.643
464.097
463.93
463.783
463.71
463.713
463.723
463.653
463.707
463.567
463.56
463.49
463.433
463.447
463.39
463.34
463.323
463.413
463.46
463.703
463.773
463.56
463.897
464.14
464.377
464.967
465.227
465.413
465.353
465.657
465.853
465.68
466.067
466.153
466.51
466.727
466.887
466.967
467.1
467.493
467.897
468.307
468.307
468.117
468.027
468.163
467.147
467.433
467.093
468.36
468.363
468.42
468.433
468.43
468.477
468.6
468.61
468.683
468.753
468.747
468.723
468.873
468.957
468.867
469.023
469.067
468.997
469
469.053
469.223
469.04
468.9
468.893
469.007
469.113
469.16
469.19
469.107
469.23
469.257
469.397
469.307
469.387
469.48
468.983
469.047
468.93
468.837
468.657
468.633
468.563
468.333
467.95
468.103
467.637
467.033
466.83
466.763
466.887
467.173
467.067
466.773
466.4
466.453
466.923
466.763
466.703
466.83
467.107
467.507
468.017
468.013
467.643
467.197
466.827
467.113
466.897
467.157
467.88
467.84
467.127
466.867
467.037
466.817
467.027
467.357
467.89
468.463
467.923
467.317
467.24
466.92
466.807
466.663
466.627
466.66
466.587
466.543
466.49
466.44
466.36
466.313
466.347
466.457
466.303
466.457
466.423
466.273
466.31
466.307
466.35
466.48
466.517
466.383
466.32
466.257
466.217
466.253
466.113
465.947
466.083
466.063
465.84
465.817
465.97
465.85
465.757
465.84
465.753
465.663
465.51
465.503
465.5
465.49
465.493
465.517
465.513
465.463
465.443
465.447
465.467
465.467
465.42
465.4
465.423
465.387
465.373
465.367
465.363
465.353
465.373
465.387
465.357
465.373
465.413
465.443
465.44
465.437
465.467
465.463
465.483
465.49
465.503
465.49
465.473
465.453
465.573
465.627
465.52
465.69
465.65
465.777
465.77
465.783
465.823
465.82
466.017
466.17
466.217
466.15
466.08
466.25
466.197
466.23
466.267
466.223
466.197
466.18
466.197
466.22
466.217
466.17
466.16
466.17
466.183
466.197
466.22
466.24
466.253
466.23
466.207
466.207
466.203
466.207
466.19
466.213
466.243
466.307
466.327
466.253
466.25
466.333
466.317
466.38
466.457
466.483
466.51
466.463
466.463
466.453
466.373
466.327
466.303
466.27
466.257
466.267
466.287
466.267
466.25
466.313
466.38
466.543
466.543
466.64
466.717
466.867
466.847
466.92
466.94
467.187
467.373
467.27
468.047
467.993
467.947
467.91
467.887
468.487
469.067
468.927
468.883
469.147
469.023
468.913
468.747
468.76
468.757
468.72
468.737
468.737
469.087
469.077
468.783
468.78
468.757
468.76
468.76
468.747
468.707
468.663
468.66
469.057
469.457
470.023
470.167
469.86
470.063
469.993
469.653
469.18
470.203
470.5
470.533
470.357
470.253
469.633
469.803
470.527
470.827
471.003
470.833
470.637
470.79
471.127
470.467
470.013
469.77
469.543
469.173
468.977
468.903
469.11
469.28
469.46
469.727
469.947
469.713
469.583
470.033
470.353
470.507
470.63
470.62
470.793
471.1
471.113
471.193
470.83
470.58
470.183
469.84
470.13
469.483
469.603
469.353
469.89
470.177
470.433
470.753
471.057
471.08
470.673
471.523
471.417
471.383
471.37
471.71
472.267
471.85
471.297
471.61
472.66
473.007
473.25
473.083
473.027
473.167
472.73
472.457
472.083
471.253
471.127
471.387
470.557
470.403
470.353
470.363
470.297
470.213
470.03
469.973
469.73
469.623
469.763
469.807
469.923
469.927
469.973
470.117
470.153
470.1
470.08
470.16
470.153
470.21
470.2
470.127
470.117
470.11
470.103
470.12
470.113
470.117
470.143
470.187
470.16
470.137
470.21
470.11
470.127
469.9
469.923
470.213
470.29
470.183
470.217
470.25
470.237
470.153
470.133
470.18
470.26
470.127
470.087
470.123
470.147
470.123
470.107
470.097
470.043
470.02
470.037
470.007
470.107
470.08
470.133
470.07
470.203
470.427
470.313
470.8
470.733
473.313
472.723
472.227
472.03
471.137
470.64
470.927
471.777
470.83
470.647
470.82
471.787
472.423
471.927
472.203
471.293
470.73
470.247
470.2
470.127
470.223
470.16
470.23
470.71
471.197
471.01
471.877
472.543
472.5
473.13
473.283
473.25
473.177
473.147
473.16
473.087
473.1
473.043
472.997
473.067
473.003
472.84
472.923
472.893
472.73
472.673
472.593
472.453
472.513
472.477
472.57
472.44
472.387
472.273
472.32
472.433
472.34
472.247
472.157
471.717
471.413
470.7
470.163
470.28
469.457
469.59
469.15
469.58
470.293
470.423
471.163
471.853
471.28
471.383
470.693
469.927
469.517
469.097
468.383
468.127
467.88
467.913
468.353
468.887
469.513
470.347
470.363
469.107
469.287
468.88
469.423
469.053
468.417
469.27
468.633
468.79
468.433
469.947
468.443
467.797
467.98
468.017
467.873
467.75
467.733
467.653
467.653
467.65
467.667
467.667
467.697
467.7
467.687
467.697
467.7
467.673
467.68
467.71
467.68
467.727
467.733
467.713
467.707
467.697
467.69
467.673
467.643
467.737
467.757
467.813
468.017
467.987
468.38
468.25
468.36
467.94
467.793
467.7
467.687
467.663
467.687
467.733
467.717
467.697
467.713
467.67
467.65
467.677
467.65
467.68
468.027
468.427
468.19
468.557
469.07
469.02
468.523
468.217
468.31
468.367
468.707
469.007
468.917
468.287
468.24
467.7
467.603
467.37
467.393
467.377
467.337
467.317
467.333
467.303
467.227
467.217
467.143
467.077
467.023
466.993
466.953
467.043
467.003
466.92
466.9
466.887
466.853
466.823
466.797
466.813
466.827
466.803
466.82
466.847
466.843
466.813
466.743
466.75
466.817
467.03
467.297
467.507
468
468.463
468.227
468.76
468.593
468.13
467.723
467.33
467.207
467.783
468.417
468.88
469.373
469.497
468.97
470.073
470.47
470.453
470.74
470.733
470.243
469.73
470
469.477
469.09
468.27
469.693
470.267
470.697
470.983
470.95
470.91
470.93
470.917
470.953
470.977
471.027
471.027
470.813
470.667
470.29
470.127
470.063
468.94
468.267
470.363
470.83
471
471.06
471.067
471.07
471.017
470.607
470.29
469.52
469.417
470.53
470.03
470.337
469.45
470.837
470.153
471.113
471.2
471.21
471.2
471.09
471.127
471.507
471.523
471.18
470.923
470.783
470.767
470.65
470.297
470.077
469.68
469.423
469.48
469.117
468.917
468.827
468.72
468.68
469.027
469.513
469.993
469.717
469.13
469.123
468.647
464.983
465.11
465.13
465.573
465.96
465.897
466.203
466.137
466.08
466.14
466.123
466.11
465.753
465.64
465.663
465.043
464.523
463.447
462.493
462.573
461.74
461.25
461.04
461.003
461.323
461.747
462.487
463.067
462.853
463.917
464.28
464.453
465.327
465.477
465.943
466
465.993
465.937
465.94
465.99
465.873
465.847
465.84
465.787
465.713
465.56
465.21
465.13
464.827
464.797
464.81
464.893
464.91
465.007
465.293
465.27
465.677
465.45
465.59
464.997
464.98
464.583
464.54
464.633
464.777
464.78
464.973
464.903
464.757
464.77
464.56
464.503
464.3
464.343
464.55
464.123
464.353
464.297
464.02
463.813
463.76
463.83
463.913
464.133
464.263
464.487
464.317
464.253
464.237
464.36
464.24
464.277
464.123
463.987
463.817
463.817
463.757
463.747
463.9
463.887
463.807
463.743
463.607
463.567
463.617
463.9
463.997
463.84
463.947
464.313
464.29
463.853
462.513
462.8
461.593
462.317
463.403
463.843
463.843
463.657
463.573
463.493
463.377
463.277
463.377
462.887
462.777
463.043
462.997
463.21
463.197
463.283
462.87
462.713
462.047
461.123
460.427
460.103
460.093
460.077
460.073
460.033
460.017
460.06
460.07
460.037
460.12
460.147
460.047
460.04
460.047
460.073
460.14
460.09
459.977
459.913
459.743
459.69
459.677
459.7
459.827
460.05
459.98
460.03
459.773
459.74
459.35
459.057
459.083
458.587
458.263
458.09
458.147
458.397
458.573
458.817
458.783
458.563
458.367
458.273
457.987
457.937
457.843
457.687
457.553
457.357
457.347
457.277
457.28
457.263
457.273
457.167
457.087
457.097
457.063
457.157
457.117
457.337
457.42
457.627
457.687
457.76
457.79
458.143
458.673
458.763
458.333
457.94
458.02
458.72
458.893
458.747
459.29
459.357
459.48
459.55
459.613
459.71
459.773
459.637
459.59
459.583
459.723
459.627
459.62
459.68
459.79
459.813
459.837
459.94
459.937
460
460.047
460.377
460.21
460.237
460.563
460.2
460.333
459.993
459.743
460.07
459.813
459.86
459.763
459.763
459.75
459.78
460.127
460.377
461.243
461.43
460.533
461.543
462.013
461.717
462.343
461.56
460.773
461.133
460.31
460.117
460.013
460.043
460.017
460.12
460.163
460.193
460.173
460.133
460.16
460.17
460.16
460.123
460.07
460.077
460.197
460.157
460.06
459.97
460.067
460.42
461.4
461.943
461.117
462.823
462.887
462.95
462.977
462.92
462.84
462.893
462.81
462.893
462.793
462.607
462.483
462.473
462.41
462.347
462.2
462.22
461.933
461.867
462.013
461.743
461.55
461.72
461.727
461.557
461.567
461.23
461.16
461.087
461.043
460.997
460.913
460.977
460.943
461.06
461.013
461.003
460.817
460.787
460.8
460.793
460.783
460.803
460.8
460.88
460.653
460.18
460.16
459.45
459.103
458.467
458.19
458.11
457.96
457.807
457.84
457.963
458.043
457.82
457.683
457.667
457.72
457.69
457.57
457.617
457.49
457.19
457.223
457.533
457.793
457.81
457.693
457.883
457.747