/*---------------------------------------------------------------------------*\ 
| =========                 |                                                 |
| \\      /  F ield         | OpenFOAM: The Open Source CFD Toolbox           |
|  \\    /   O peration     | Version:  1.4                                   |
|   \\  /    A nd           | Web:      http://www.openfoam.org               |
|    \\/     M anipulation  |                                                 |
\*---------------------------------------------------------------------------*/ 

FoamFile
{
    version         2.0;
    format          ascii;

    root            "";
    case            "";
    instance        "";
    local           "";

    class           volScalarField;
    object          S;
}

// * * * * * * * * * * * * * * * * * * * * * * * * * * * * * * * * * * * * * //


dimensions      [0 1 0 0 0 0 0];

internalField   nonuniform List<scalar>
120
(  
0.448125
0.444375
0.440625
0.436875
0.433125
0.429375
0.425625
0.421875
0.418125
0.414375
0.410625
0.406875
0.403125
0.399375
0.395625
0.391875
0.388125
0.384375
0.380625
0.376875
0.373125
0.369375
0.365625
0.361875
0.358125
0.354375
0.350625
0.346875
0.343125
0.339375
0.335625
0.331875
0.328125
0.324375
0.320625
0.316875
0.313125
0.309375
0.305625
0.301875
0.3138089
0.3410408
0.3671249
0.3913272
0.4129601
0.4313993
0.4460989
0.4566052
0.4625673
0.4637465
0.4600215
0.4513917
0.437977
0.4200153
0.3978561
0.3719522
0.3428487
0.3111691
0.2776005
0.2428764
0.223125
0.219375
0.215625
0.211875
0.208125
0.204375
0.200625
0.196875
0.193125
0.189375
0.185625
0.181875
0.178125
0.174375
0.170625
0.166875
0.163125
0.159375
0.155625
0.151875
0.148125
0.144375
0.140625
0.136875
0.133125
0.129375
0.125625
0.121875
0.118125
0.114375
0.110625
0.106875
0.103125
0.099375
0.095625
0.091875
0.088125
0.084375
0.080625
0.076875
0.073125
0.069375
0.065625
0.061875
0.058125
0.054375
0.050625
0.046875
0.043125
0.039375
0.035625
0.031875
0.028125
0.024375
0.020625
0.016875
0.013125
0.009375
0.005625
0.001875
) 
;

boundaryField
{
    front
    {
        type       fixedValue;
        value      uniform 0.45;
    }

    back
    {
        type       fixedValue;
        value      uniform 0.0;
    }

    right
    {
        type       empty;
    }

    left
    {
        type       empty;
    }

    TopAndBot
    {
        type       empty;
    }

}


// ************************************************************************* //
